<LesHouchesEvents version="3.0">
<header>
<!--
#*********************************************************************
#                                                                    *
#                        MadGraph5_aMC@NLO                           *
#                                                                    *
#                           Going Beyond                             *
#                                                                    *
#                   http://madgraph.hep.uiuc.edu                     *
#                   http://madgraph.phys.ucl.ac.be                   *
#                   http://amcatnlo.cern.ch                          *
#                                                                    *
#                     The MadGraph5_aMC@NLO team                     *
#                                                                    *
#....................................................................*
#                                                                    *
# This file contains all the information necessary to reproduce      *
# the events generated:                                              *
#                                                                    *
# 1. software version                                                *
# 2. proc_card          : code generation info including model       *
# 3. param_card         : model primary parameters in the LH format  *
# 4. run_card           : running parameters (collider and cuts)     *
# 5. pythia_card        : present only if pythia has been run        *
# 6. pgs_card           : present only if pgs has been run           *
# 7. delphes_cards      : present only if delphes has been run       *
#                                                                    *
#                                                                    *
#*********************************************************************
-->
<MGVersion>
#5.2.3.3
</MGVersion>
<MG5ProcCard>
#************************************************************
#*                     MadGraph5_aMC@NLO                    *
#*                                                          *
#*                *                       *                 *
#*                  *        * *        *                   *
#*                    * * * * 5 * * * *                     *
#*                  *        * *        *                   *
#*                *                       *                 *
#*                                                          *
#*                                                          *
#*         VERSION 2.3.3                 2015-10-25         *
#*                                                          *
#*    The MadGraph5_aMC@NLO Development Team - Find us at   *
#*    https://server06.fynu.ucl.ac.be/projects/madgraph     *
#*                                                          *
#************************************************************
#*                                                          *
#*               Command File for MadGraph5_aMC@NLO         *
#*                                                          *
#*     run as ./bin/mg5_aMC  filename                       *
#*                                                          *
#************************************************************
set group_subprocesses Auto
set ignore_six_quark_processes False
set loop_color_flows False
set gauge unitary
set complex_mass_scheme False
set max_npoint_for_channel 0
import model mssm-CompressedStop_masslessTau
define p = g u c d s u~ c~ d~ s~
define j = g u c d s u~ c~ d~ s~
define l+ = e+ mu+
define l- = e- mu-
define vl = ve vm vt
define vl~ = ve~ vm~ vt~
define l- = l- ta-
define l+ = l+ ta+
define prod1 = l+ u c
define prod2 = vl d~ s~
define prod3 =  l- u~ c~
define prod4 = vl~ d s
define trash = go ul cl ur cr t2 dl sl b1 dr sr b2 ul~ cl~ ur~ cr~ t2~\
 dl~ sl~ b1~ dr~ sr~ b2~ h2 h3 h+ sve svm svt el- mul- ta1- er- mur- t\
a2- h- sve~ svm~ svt~ el+ mul+ ta1+ er+ mur+ ta2+ n2 n3 n4 x1+ x2+ x1-\
 x2-
generate p p > t1 t1~ j /trash QCD=3 QED=3 @1
add process p p > t1 t1~ /trash QCD=2 QED=2 @0
add process p p > t1 t1~ j j /trash QCD=4 QED=4 @2
output StopProductionOnly_0-2j
</MG5ProcCard>
<MGProcCard>
#*********************************************************************
#                        MadGraph/MadEvent                           *
#                   http://madgraph.hep.uiuc.edu                     *
#                                                                    *
#                          proc_card.dat                             *
#*********************************************************************
#                                                                    *
#            This Files is generated by MADGRAPH 5                   *
#                                                                    *
# WARNING: This Files is generated for MADEVENT (compatibility issue)*
#          This files is NOT a valid MG4 proc_card.dat               *
#          Running this in MG4 will NEVER reproduce the result of MG5*
#                                                                    *
#*********************************************************************
#*********************************************************************
# Process(es) requested : mg2 input                                  *
#*********************************************************************
# Begin PROCESS # This is TAG. Do not modify this line
p p > t1 t1~ j /trash @1           #Process
# Be carefull the coupling are here in MG5 convention
QCD=3
QED=3
          
end_coup           # End the couplings input

done               # this tells MG there are no more procs
# End PROCESS  # This is TAG. Do not modify this line
#*********************************************************************
# Model information                                                  *
#*********************************************************************
# Begin MODEL  # This is TAG. Do not modify this line
mssm-CompressedStop_masslessTau
# End   MODEL  # This is TAG. Do not modify this line
#*********************************************************************
# Start multiparticle definitions                                    *
#*********************************************************************
# Begin MULTIPARTICLES # This is TAG. Do not modify this line

# End  MULTIPARTICLES # This is TAG. Do not modify this line
</MGProcCard>
<MGRunCard>
#*********************************************************************
#                       MadGraph5_aMC@NLO                            *
#                                                                    *
#                     run_card.dat MadEvent                          *
#                                                                    *
#  This file is used to set the parameters of the run.               *
#                                                                    *
#  Some notation/conventions:                                        *
#                                                                    *
#   Lines starting with a '# ' are info or comments                  *
#                                                                    *
#   mind the format:   value    = variable     ! comment             *
#*********************************************************************
#
#*******************                                                 
# Running parameters
#*******************                                                 
#                                                                    
#*********************************************************************
# Tag name for the run (one word)                                    *
#*********************************************************************
  tag_1     = run_tag ! name of the run 
#*********************************************************************
# Run to generate the grid pack                                      *
#*********************************************************************
  True     = gridpack  !True = setting up the grid pack
#*********************************************************************
# Number of events and rnd seed                                      *
# Warning: Do not generate more than 1M events in a single run       *
# If you want to run Pythia, avoid more than 50k events in a run.    *
#*********************************************************************
  10000 = nevents ! Number of unweighted events requested 
 21 = iseed   ! rnd seed (0=assigned automatically=default))
#*********************************************************************
# Collider type and energy                                           *
# lpp: 0=No PDF, 1=proton, -1=antiproton, 2=photon from proton,      *
#                                         3=photon from electron     *
#*********************************************************************
     1        = lpp1    ! beam 1 type 
     1        = lpp2    ! beam 2 type
     6500.0     = ebeam1  ! beam 1 total energy in GeV
     6500.0     = ebeam2  ! beam 2 total energy in GeV
#*********************************************************************
# Beam polarization from -100 (left-handed) to 100 (right-handed)    *
#*********************************************************************
     0.0     = polbeam1 ! beam polarization for beam 1
     0.0     = polbeam2 ! beam polarization for beam 2
#*********************************************************************
# PDF CHOICE: this automatically fixes also alpha_s and its evol.    *
#*********************************************************************
     nn23lo1    = pdlabel     ! PDF set                                     
     230000    = lhaid     ! if pdlabel=lhapdf, this is the lhapdf number
#*********************************************************************
# Renormalization and factorization scales                           *
#*********************************************************************
 False = fixed_ren_scale  ! if .true. use fixed ren scale
 False        = fixed_fac_scale  ! if .true. use fixed fac scale
 91.188  = scale            ! fixed ren scale
 91.188  = dsqrt_q2fact1    ! fixed fact scale for pdf1
 91.188  = dsqrt_q2fact2    ! fixed fact scale for pdf2
 -1 = dynamical_scale_choice ! Choose one of the preselected dynamical choices
 1.0  = scalefact        ! scale factor for event-by-event scales
#*********************************************************************
# Time of flight information. (-1 means not run)
#*********************************************************************
 -1.0 = time_of_flight ! threshold below which info is not written
#*********************************************************************
# Matching - Warning! ickkw > 1 is still beta
#*********************************************************************
 1 = ickkw            ! 0 no matching, 1 MLM, 2 CKKW matching
 1 = highestmult      ! for ickkw=2, highest mult group
 1 = ktscheme         ! for ickkw=1, 1 Durham kT, 2 Pythia pTE
 1.0 = alpsfact         ! scale factor for QCD emission vx
 False = chcluster        ! cluster only according to channel diag
 True = pdfwgt           ! for ickkw=1, perform pdf reweighting
 4 = asrwgtflavor     ! highest quark flavor for a_s reweight
 True = clusinfo         ! include clustering tag in output
 3.0 = lhe_version       ! Change the way clustering information pass to shower.        
#*********************************************************************
#**********************************************************
#
#**********************************************************
# Automatic ptj and mjj cuts if xqcut > 0
# (turn off for VBF and single top processes)
#**********************************************************
   True  = auto_ptj_mjj  ! Automatic setting of ptj and mjj
#**********************************************************
#                                                                    
#**********************************
# BW cutoff (M+/-bwcutoff*Gamma)
#**********************************
  15.0  = bwcutoff      ! (M+/-bwcutoff*Gamma)
#**********************************************************
# Apply pt/E/eta/dr/mij/kt_durham cuts on decay products or not
# (note that etmiss/ptll/ptheavy/ht/sorted cuts always apply)
#*************************************************************
   False  = cut_decays    ! Cut decay products 
#*************************************************************
# Number of helicities to sum per event (0 = all helicities)
# 0 gives more stable result, but longer run time (needed for
# long decay chains e.g.).
# Use >=2 if most helicities contribute, e.g. pure QCD.
#*************************************************************
   0  = nhel          ! Number of helicities used per event
#*******************                                                 
# Standard Cuts
#*******************                                                 
#                                                                    
#*********************************************************************
# Minimum and maximum pt's (for max, -1 means no cut)                *
#*********************************************************************
 20.0  = ptj       ! minimum pt for the jets 
 0.0  = ptb       ! minimum pt for the b 
 10.0  = pta       ! minimum pt for the photons 
 10.0  = ptl       ! minimum pt for the charged leptons 
 0.0  = misset    ! minimum missing Et (sum of neutrino's momenta)
 0.0  = ptheavy   ! minimum pt for one heavy final state
 -1.0  = ptjmax    ! maximum pt for the jets
 -1.0  = ptbmax    ! maximum pt for the b
 -1.0  = ptamax    ! maximum pt for the photons
 -1.0  = ptlmax    ! maximum pt for the charged leptons
 -1.0  = missetmax ! maximum missing Et (sum of neutrino's momenta)
#*********************************************************************
# Minimum and maximum E's (in the center of mass frame)              *
#*********************************************************************
  0.0  = ej     ! minimum E for the jets 
  0.0  = eb     ! minimum E for the b 
  0.0  = ea     ! minimum E for the photons 
  0.0  = el     ! minimum E for the charged leptons 
  -1.0   = ejmax ! maximum E for the jets
 -1.0   = ebmax ! maximum E for the b
 -1.0   = eamax ! maximum E for the photons
 -1.0   = elmax ! maximum E for the charged leptons
#*********************************************************************
# Maximum and minimum absolute rapidity (for max, -1 means no cut)   *
#*********************************************************************
  5.0 = etaj    ! max rap for the jets 
  -1.0  = etab    ! max rap for the b
 2.5  = etaa    ! max rap for the photons 
 2.5  = etal    ! max rap for the charged leptons 
 0.0  = etajmin ! min rap for the jets
 0.0  = etabmin ! min rap for the b
 0.0  = etaamin ! min rap for the photons
 0.0  = etalmin ! main rap for the charged leptons
#*********************************************************************
# Minimum and maximum DeltaR distance                                *
#*********************************************************************
 0.0 = drjj    ! min distance between jets 
 0.0   = drbb    ! min distance between b's 
 0.4 = drll    ! min distance between leptons 
 0.4 = draa    ! min distance between gammas 
 0.0   = drbj    ! min distance between b and jet 
 0.4 = draj    ! min distance between gamma and jet 
 0.0 = drjl    ! min distance between jet and lepton 
 0.0   = drab    ! min distance between gamma and b 
 0.0   = drbl    ! min distance between b and lepton 
 0.4 = dral    ! min distance between gamma and lepton 
 -1.0  = drjjmax ! max distance between jets
 -1.0  = drbbmax ! max distance between b's
 -1.0  = drllmax ! max distance between leptons
 -1.0  = draamax ! max distance between gammas
 -1.0  = drbjmax ! max distance between b and jet
 -1.0  = drajmax ! max distance between gamma and jet
 -1.0  = drjlmax ! max distance between jet and lepton
 -1.0  = drabmax ! max distance between gamma and b
 -1.0  = drblmax ! max distance between b and lepton
 -1.0  = dralmax ! maxdistance between gamma and lepton
#*********************************************************************
# Minimum and maximum invariant mass for pairs                       *
# WARNING: for four lepton final state mmll cut require to have      *
#          different lepton masses for each flavor!                  *           
#*********************************************************************
 0.0   = mmjj    ! min invariant mass of a jet pair 
 0.0   = mmbb    ! min invariant mass of a b pair 
 0.0   = mmaa    ! min invariant mass of gamma gamma pair
 0.0   = mmll    ! min invariant mass of l+l- (same flavour) lepton pair
 -1.0  = mmjjmax ! max invariant mass of a jet pair
 -1.0  = mmbbmax ! max invariant mass of a b pair
 -1.0  = mmaamax ! max invariant mass of gamma gamma pair
 -1.0  = mmllmax ! max invariant mass of l+l- (same flavour) lepton pair
#*********************************************************************
# Minimum and maximum invariant mass for all letpons                 *
#*********************************************************************
 0.0   = mmnl    ! min invariant mass for all letpons (l+- and vl) 
 -1.0  = mmnlmax ! max invariant mass for all letpons (l+- and vl) 
#*********************************************************************
# Minimum and maximum pt for 4-momenta sum of leptons                *
#*********************************************************************
 0.0   = ptllmin  ! Minimum pt for 4-momenta sum of leptons(l and vl)
 -1.0  = ptllmax  ! Maximum pt for 4-momenta sum of leptons(l and vl)
#*********************************************************************
# Inclusive cuts                                                     *
#*********************************************************************
 0.0  = xptj ! minimum pt for at least one jet  
 0.0  = xptb ! minimum pt for at least one b 
 0.0  = xpta ! minimum pt for at least one photon 
 0.0  = xptl ! minimum pt for at least one charged lepton 
#*********************************************************************
# Control the pt's of the jets sorted by pt                          *
#*********************************************************************
 0.0   = ptj1min ! minimum pt for the leading jet in pt
 0.0   = ptj2min ! minimum pt for the second jet in pt
 0.0   = ptj3min ! minimum pt for the third jet in pt
 0.0   = ptj4min ! minimum pt for the fourth jet in pt
 -1.0  = ptj1max ! maximum pt for the leading jet in pt 
 -1.0  = ptj2max ! maximum pt for the second jet in pt
 -1.0  = ptj3max ! maximum pt for the third jet in pt
 -1.0  = ptj4max ! maximum pt for the fourth jet in pt
 0   = cutuse  ! reject event if fails any (0) / all (1) jet pt cuts
#*********************************************************************
# Control the pt's of leptons sorted by pt                           *
#*********************************************************************
 0.0   = ptl1min ! minimum pt for the leading lepton in pt
 0.0   = ptl2min ! minimum pt for the second lepton in pt
 0.0   = ptl3min ! minimum pt for the third lepton in pt
 0.0   = ptl4min ! minimum pt for the fourth lepton in pt
 -1.0  = ptl1max ! maximum pt for the leading lepton in pt 
 -1.0  = ptl2max ! maximum pt for the second lepton in pt
 -1.0  = ptl3max ! maximum pt for the third lepton in pt
 -1.0  = ptl4max ! maximum pt for the fourth lepton in pt
#*********************************************************************
# Control the Ht(k)=Sum of k leading jets                            *
#*********************************************************************
 0.0   = htjmin ! minimum jet HT=Sum(jet pt)
 -1.0  = htjmax ! maximum jet HT=Sum(jet pt)
 0.0   = ihtmin  !inclusive Ht for all partons (including b)
 -1.0  = ihtmax  !inclusive Ht for all partons (including b)
 0.0   = ht2min ! minimum Ht for the two leading jets
 0.0   = ht3min ! minimum Ht for the three leading jets
 0.0   = ht4min ! minimum Ht for the four leading jets
 -1.0  = ht2max ! maximum Ht for the two leading jets
 -1.0  = ht3max ! maximum Ht for the three leading jets
 -1.0  = ht4max ! maximum Ht for the four leading jets
#***********************************************************************
# Photon-isolation cuts, according to hep-ph/9801442                   *
# When ptgmin=0, all the other parameters are ignored                  *
# When ptgmin>0, pta and draj are not going to be used                 *
#***********************************************************************
 0.0 = ptgmin ! Min photon transverse momentum
 0.4 = R0gamma ! Radius of isolation code
 1.0 = xn ! n parameter of eq.(3.4) in hep-ph/9801442
 1.0 = epsgamma ! epsilon_gamma parameter of eq.(3.4) in hep-ph/9801442
 True = isoEM ! isolate photons from EM energy (photons and leptons)
#*********************************************************************
# WBF cuts                                                           *
#*********************************************************************
 0.0   = xetamin ! minimum rapidity for two jets in the WBF case  
 0.0   = deltaeta ! minimum rapidity for two jets in the WBF case 
#*********************************************************************
# KT DURHAM CUT                                                      *
#*********************************************************************
 -1.0    =  ktdurham        
 0.4  =  dparameter 
#*********************************************************************
# maximal pdg code for quark to be considered as a light jet         *
# (otherwise b cuts are applied)                                     *
#*********************************************************************
 4 = maxjetflavor    ! Maximum jet pdg code
#*********************************************************************
# Jet measure cuts                                                   *
#*********************************************************************
 30.0   = xqcut   ! minimum kt jet measure between partons
#*********************************************************************
#
#*********************************************************************
# Store info for systematics studies                                 *
# WARNING: If use_syst is T, matched Pythia output is                *
#          meaningful ONLY if plotted taking matchscale              *
#          reweighting into account!                                 *
#*********************************************************************
   False  = use_syst      ! Enable systematics studies
#
#**************************************
# Parameter of the systematics study
#  will be used by SysCalc (if installed)
#**************************************                                  
#
0.5 1 2 = sys_scalefact  # factorization/renormalization scale factor
0.5 1 2 = sys_alpsfact  # \alpha_s emission scale factors
30 50 = sys_matchscale # variation of merging scale
# PDF sets and number of members (0 or none for all members).
Ct10nlo.LHgrid = sys_pdf # matching scales
# MSTW2008nlo68cl.LHgrid 1  = sys_pdf
</MGRunCard>
<slha>
######################################################################
## PARAM_CARD AUTOMATICALY GENERATED BY MG5                       ####
######################################################################
###################################
## INFORMATION FOR HMIX
###################################
BLOCK HMIX Q= 1.000000e+00 # 
      1 3.576810e+02 #   rmuh
      2 9.748624e+00 #   tb
      4 1.664391e+05 #   ma2
      3 2.449353e+02 # higgs vev(Q) MSSM DRb
###################################
## INFORMATION FOR MASS
###################################
BLOCK MASS # 
      5 4.889917e+00 #   mb
      6 1.750000e+02 #   mt
      15 0.000000e+00 #   mta
      23 9.118760e+01 #   mz
      24 7.982901e+01 #   mw
      25 1.250000e+02 #   mh01
      1000006 3.500000e+02 #   msu3
      1000022 3.300000e+02 #   mneu1
      1000023 1.000000e+05 #   set of param :1*mneu2, -1*mneu3, 1*mneu4, 1*mch1, 1*mch2, 1*mgo, 1*mh02, 1*ma0, 1*mh, 1*msn1, 1*msn2, 1*msn3, 1*msl1, 1*msl2, 1*msl3, 1*msl4, 1*msl5, 1*msl6, 1*msu1, 1*msu2, 1*msu4, 1*msu5, 1*msu6, 1*msd1, 1*msd2, 1*msd3, 1*msd4, 1*msd5, 1*msd6
      1 0.000000e+00 #   d : 0.0
      2 0.000000e+00 #   u : 0.0
      3 0.000000e+00 #   s : 0.0
      4 0.000000e+00 #   c : 0.0
      11 0.000000e+00 #   e- : 0.0
      12 0.000000e+00 #   ve : 0.0
      13 0.000000e+00 #   mu- : 0.0
      14 0.000000e+00 #   vm : 0.0
      16 0.000000e+00 #   vt : 0.0
      21 0.000000e+00 #   g : 0.0
      22 0.000000e+00 #   a : 0.0
      1000025 -1.000000e+05 #   n3 : mneu2 must be opposite to [1000023]
      1000035 1.000000e+05 #   n4 : mneu2
      1000024 1.000000e+05 #   x1+ : mneu2
      1000037 1.000000e+05 #   x2+ : mneu2
      1000021 1.000000e+05 #   go : mneu2
      35 1.000000e+05 #   h2 : mneu2
      36 1.000000e+05 #   h3 : mneu2
      37 1.000000e+05 #   h+ : mneu2
      1000012 1.000000e+05 #   sve : mneu2
      1000014 1.000000e+05 #   svm : mneu2
      1000016 1.000000e+05 #   svt : mneu2
      1000011 1.000000e+05 #   el- : mneu2
      1000013 1.000000e+05 #   mul- : mneu2
      1000015 1.000000e+05 #   ta1- : mneu2
      2000011 1.000000e+05 #   er- : mneu2
      2000013 1.000000e+05 #   mur- : mneu2
      2000015 1.000000e+05 #   ta2- : mneu2
      1000002 1.000000e+05 #   ul : mneu2
      1000004 1.000000e+05 #   cl : mneu2
      2000002 1.000000e+05 #   ur : mneu2
      2000004 1.000000e+05 #   cr : mneu2
      2000006 1.000000e+05 #   t2 : mneu2
      1000001 1.000000e+05 #   dl : mneu2
      1000003 1.000000e+05 #   sl : mneu2
      1000005 1.000000e+05 #   b1 : mneu2
      2000001 1.000000e+05 #   dr : mneu2
      2000003 1.000000e+05 #   sr : mneu2
      2000005 1.000000e+05 #   b2 : mneu2
###################################
## INFORMATION FOR MSOFT
###################################
BLOCK MSOFT Q= 1.000000e+00 # 
      1 1.013965e+02 #   rmx1
      2 1.915042e+02 #   rmx2
      3 5.882630e+02 #   rmx3
      21 3.233749e+04 #   mhd2
      22 -1.288001e+05 #   mhu2
      31 1.953348e+02 #   set of param :1*rml21x1, 1*rml22x2
      32 1.953348e+02 #   mg5 will not use this value use instead 1*mdl_rml21x1
      33 1.944960e+02 #   rml23x3
      34 1.364941e+02 #   set of param :1*rme21x1, 1*rme22x2
      35 1.364941e+02 #   mg5 will not use this value use instead 1*mdl_rme21x1
      36 1.340434e+02 #   rme23x3
      41 5.475735e+02 #   set of param :1*rmq21x1, 1*rmq22x2
      42 5.475735e+02 #   mg5 will not use this value use instead 1*mdl_rmq21x1
      43 4.987639e+02 #   rmq23x3
      44 5.295112e+02 #   set of param :1*rmu21x1, 1*rmu22x2
      45 5.295112e+02 #   mg5 will not use this value use instead 1*mdl_rmu21x1
      46 4.232459e+02 #   rmu23x3
      47 5.231488e+02 #   set of param :1*rmd21x1, 1*rmd22x2
      48 5.231488e+02 #   mg5 will not use this value use instead 1*mdl_rmd21x1
      49 5.198673e+02 #   rmd23x3
###################################
## INFORMATION FOR NMIX
###################################
BLOCK NMIX # 
      1 1 9.863644e-01 #   rnn1x1
      1 2 -5.311036e-02 #   rnn1x2
      1 3 1.464340e-01 #   rnn1x3
      1 4 -5.311861e-02 #   rnn1x4
      2 1 9.935054e-02 #   rnn2x1
      2 2 9.449493e-01 #   rnn2x2
      2 3 -2.698467e-01 #   rnn2x3
      2 4 1.561507e-01 #   rnn2x4
      3 1 -6.033880e-02 #   rnn3x1
      3 2 8.770049e-02 #   rnn3x2
      3 3 6.958775e-01 #   rnn3x3
      3 4 7.102270e-01 #   rnn3x4
      4 1 -1.165071e-01 #   rnn4x1
      4 2 3.107390e-01 #   rnn4x2
      4 3 6.492260e-01 #   rnn4x3
      4 4 -6.843778e-01 #   rnn4x4
###################################
## INFORMATION FOR SMINPUTS
###################################
BLOCK SMINPUTS # 
      1 1.279340e+02 #   aewm1
      3 1.180000e-01 #   as
      6 1.750000e+02 #   mt
      7 0.000000e+00 #   mta
      4 9.118760e+01 #   mz
      2 1.166370e-05 # G_F [GeV^-2]
###################################
## INFORMATION FOR UMIX
###################################
BLOCK UMIX # 
      1 1 9.168349e-01 #   ruu1x1
      1 2 -3.992666e-01 #   ruu1x2
      2 1 3.992666e-01 #   ruu2x1
      2 2 9.168349e-01 #   ruu2x2
###################################
## INFORMATION FOR VMIX
###################################
BLOCK VMIX # 
      1 1 9.725578e-01 #   rvv1x1
      1 2 -2.326612e-01 #   rvv1x2
      2 1 2.326612e-01 #   rvv2x1
      2 2 9.725578e-01 #   rvv2x2
###################################
## INFORMATION FOR YD
###################################
BLOCK YD Q= 1.000000e+00 # 
      3 3 1.388402e-01 #   ryd3x3
###################################
## INFORMATION FOR YE
###################################
BLOCK YE Q= 1.000000e+00 # 
      3 3 1.008908e-01 #   rye3x3
###################################
## INFORMATION FOR YU
###################################
BLOCK YU Q= 1.000000e+00 # 
      3 3 8.928445e-01 #   ryu3x3
###################################
## INFORMATION FOR DECAY
###################################
DECAY 6 1.561950e+00 #   wt
DECAY 23 2.411433e+00 #   wz
DECAY 24 2.002822e+00 #   ww
DECAY 25 1.986108e-03 #   wh01
DECAY 35 5.748014e-01 #   wh02
DECAY 36 6.321785e-01 #   wa0
DECAY 37 5.469628e-01 #   wh
DECAY 1000001 5.312788e+00 #   wsd1
DECAY 1000002 5.477195e+00 #   wsu1
DECAY 1000003 5.312788e+00 #   wsd2
DECAY 1000004 5.477195e+00 #   wsu2
DECAY 1000005 3.736276e+00 #   wsd3
DECAY 1000006 2.021596e+00 #   wsu3
DECAY 1000011 2.136822e-01 #   wsl1
DECAY 1000012 1.498816e-01 #   wsn1
DECAY 1000013 2.136822e-01 #   wsl2
DECAY 1000014 1.498816e-01 #   wsn2
DECAY 1000015 1.483273e-01 #   wsl3
DECAY 1000016 1.475190e-01 #   wsn3
DECAY 1000021 5.506754e+00 #   wgo
DECAY 1000023 2.077700e-02 #   wneu2
DECAY 1000024 1.704145e-02 #   wch1
DECAY 1000025 1.915985e+00 #   wneu3
DECAY 1000035 2.585851e+00 #   wneu4
DECAY 1000037 2.486895e+00 #   wch2
DECAY 2000001 2.858123e-01 #   wsd4
DECAY 2000002 1.152973e+00 #   wsu4
DECAY 2000003 2.858123e-01 #   wsd5
DECAY 2000004 1.152973e+00 #   wsu5
DECAY 2000005 8.015663e-01 #   wsd6
DECAY 2000006 7.373133e+00 #   wsu6
DECAY 2000011 2.161216e-01 #   wsl4
DECAY 2000013 2.161216e-01 #   wsl5
DECAY 2000015 2.699061e-01 #   wsl6
DECAY 1 0.000000e+00 #   d : 0.0
DECAY 2 0.000000e+00 #   u : 0.0
DECAY 3 0.000000e+00 #   s : 0.0
DECAY 4 0.000000e+00 #   c : 0.0
DECAY 5 0.000000e+00 #   b : 0.0
DECAY 11 0.000000e+00 #   e- : 0.0
DECAY 12 0.000000e+00 #   ve : 0.0
DECAY 13 0.000000e+00 #   mu- : 0.0
DECAY 14 0.000000e+00 #   vm : 0.0
DECAY 15 0.000000e+00 #   ta- : 0.0
DECAY 16 0.000000e+00 #   vt : 0.0
DECAY 21 0.000000e+00 #   g : 0.0
DECAY 22 0.000000e+00 #   a : 0.0
DECAY 1000022 0.000000e+00 #   n1 : 0.0
###################################
## INFORMATION FOR QNUMBERS 1000022
###################################
BLOCK QNUMBERS 1000022 #   n1
      1 0 #   3 times electric charge
      2 2 #   number of spin states (2s+1)
      3 1 #   colour rep (1: singlet, 3: triplet, 8: octet)
      4 0 #   particle/antiparticle distinction (0=own anti)
###################################
## INFORMATION FOR QNUMBERS 1000023
###################################
BLOCK QNUMBERS 1000023 #   n2
      1 0 #   3 times electric charge
      2 2 #   number of spin states (2s+1)
      3 1 #   colour rep (1: singlet, 3: triplet, 8: octet)
      4 0 #   particle/antiparticle distinction (0=own anti)
###################################
## INFORMATION FOR QNUMBERS 1000025
###################################
BLOCK QNUMBERS 1000025 #   n3
      1 0 #   3 times electric charge
      2 2 #   number of spin states (2s+1)
      3 1 #   colour rep (1: singlet, 3: triplet, 8: octet)
      4 0 #   particle/antiparticle distinction (0=own anti)
###################################
## INFORMATION FOR QNUMBERS 1000035
###################################
BLOCK QNUMBERS 1000035 #   n4
      1 0 #   3 times electric charge
      2 2 #   number of spin states (2s+1)
      3 1 #   colour rep (1: singlet, 3: triplet, 8: octet)
      4 0 #   particle/antiparticle distinction (0=own anti)
###################################
## INFORMATION FOR QNUMBERS 1000024
###################################
BLOCK QNUMBERS 1000024 #   x1+
      1 3 #   3 times electric charge
      2 2 #   number of spin states (2s+1)
      3 1 #   colour rep (1: singlet, 3: triplet, 8: octet)
      4 1 #   particle/antiparticle distinction (0=own anti)
###################################
## INFORMATION FOR QNUMBERS 1000037
###################################
BLOCK QNUMBERS 1000037 #   x2+
      1 3 #   3 times electric charge
      2 2 #   number of spin states (2s+1)
      3 1 #   colour rep (1: singlet, 3: triplet, 8: octet)
      4 1 #   particle/antiparticle distinction (0=own anti)
###################################
## INFORMATION FOR QNUMBERS 1000021
###################################
BLOCK QNUMBERS 1000021 #   go
      1 0 #   3 times electric charge
      2 2 #   number of spin states (2s+1)
      3 8 #   colour rep (1: singlet, 3: triplet, 8: octet)
      4 0 #   particle/antiparticle distinction (0=own anti)
###################################
## INFORMATION FOR QNUMBERS 35
###################################
BLOCK QNUMBERS 35 #   h2
      1 0 #   3 times electric charge
      2 1 #   number of spin states (2s+1)
      3 1 #   colour rep (1: singlet, 3: triplet, 8: octet)
      4 0 #   particle/antiparticle distinction (0=own anti)
###################################
## INFORMATION FOR QNUMBERS 36
###################################
BLOCK QNUMBERS 36 #   h3
      1 0 #   3 times electric charge
      2 1 #   number of spin states (2s+1)
      3 1 #   colour rep (1: singlet, 3: triplet, 8: octet)
      4 0 #   particle/antiparticle distinction (0=own anti)
###################################
## INFORMATION FOR QNUMBERS 37
###################################
BLOCK QNUMBERS 37 #   h+
      1 3 #   3 times electric charge
      2 1 #   number of spin states (2s+1)
      3 1 #   colour rep (1: singlet, 3: triplet, 8: octet)
      4 1 #   particle/antiparticle distinction (0=own anti)
###################################
## INFORMATION FOR QNUMBERS 1000012
###################################
BLOCK QNUMBERS 1000012 #   sve
      1 0 #   3 times electric charge
      2 1 #   number of spin states (2s+1)
      3 1 #   colour rep (1: singlet, 3: triplet, 8: octet)
      4 1 #   particle/antiparticle distinction (0=own anti)
###################################
## INFORMATION FOR QNUMBERS 1000014
###################################
BLOCK QNUMBERS 1000014 #   svm
      1 0 #   3 times electric charge
      2 1 #   number of spin states (2s+1)
      3 1 #   colour rep (1: singlet, 3: triplet, 8: octet)
      4 1 #   particle/antiparticle distinction (0=own anti)
###################################
## INFORMATION FOR QNUMBERS 1000016
###################################
BLOCK QNUMBERS 1000016 #   svt
      1 0 #   3 times electric charge
      2 1 #   number of spin states (2s+1)
      3 1 #   colour rep (1: singlet, 3: triplet, 8: octet)
      4 1 #   particle/antiparticle distinction (0=own anti)
###################################
## INFORMATION FOR QNUMBERS 1000011
###################################
BLOCK QNUMBERS 1000011 #   el-
      1 -3 #   3 times electric charge
      2 1 #   number of spin states (2s+1)
      3 1 #   colour rep (1: singlet, 3: triplet, 8: octet)
      4 1 #   particle/antiparticle distinction (0=own anti)
###################################
## INFORMATION FOR QNUMBERS 1000013
###################################
BLOCK QNUMBERS 1000013 #   mul-
      1 -3 #   3 times electric charge
      2 1 #   number of spin states (2s+1)
      3 1 #   colour rep (1: singlet, 3: triplet, 8: octet)
      4 1 #   particle/antiparticle distinction (0=own anti)
###################################
## INFORMATION FOR QNUMBERS 1000015
###################################
BLOCK QNUMBERS 1000015 #   ta1-
      1 -3 #   3 times electric charge
      2 1 #   number of spin states (2s+1)
      3 1 #   colour rep (1: singlet, 3: triplet, 8: octet)
      4 1 #   particle/antiparticle distinction (0=own anti)
###################################
## INFORMATION FOR QNUMBERS 2000011
###################################
BLOCK QNUMBERS 2000011 #   er-
      1 -3 #   3 times electric charge
      2 1 #   number of spin states (2s+1)
      3 1 #   colour rep (1: singlet, 3: triplet, 8: octet)
      4 1 #   particle/antiparticle distinction (0=own anti)
###################################
## INFORMATION FOR QNUMBERS 2000013
###################################
BLOCK QNUMBERS 2000013 #   mur-
      1 -3 #   3 times electric charge
      2 1 #   number of spin states (2s+1)
      3 1 #   colour rep (1: singlet, 3: triplet, 8: octet)
      4 1 #   particle/antiparticle distinction (0=own anti)
###################################
## INFORMATION FOR QNUMBERS 2000015
###################################
BLOCK QNUMBERS 2000015 #   ta2-
      1 -3 #   3 times electric charge
      2 1 #   number of spin states (2s+1)
      3 1 #   colour rep (1: singlet, 3: triplet, 8: octet)
      4 1 #   particle/antiparticle distinction (0=own anti)
###################################
## INFORMATION FOR QNUMBERS 1000002
###################################
BLOCK QNUMBERS 1000002 #   ul
      1 2 #   3 times electric charge
      2 1 #   number of spin states (2s+1)
      3 3 #   colour rep (1: singlet, 3: triplet, 8: octet)
      4 1 #   particle/antiparticle distinction (0=own anti)
###################################
## INFORMATION FOR QNUMBERS 1000004
###################################
BLOCK QNUMBERS 1000004 #   cl
      1 2 #   3 times electric charge
      2 1 #   number of spin states (2s+1)
      3 3 #   colour rep (1: singlet, 3: triplet, 8: octet)
      4 1 #   particle/antiparticle distinction (0=own anti)
###################################
## INFORMATION FOR QNUMBERS 1000006
###################################
BLOCK QNUMBERS 1000006 #   t1
      1 2 #   3 times electric charge
      2 1 #   number of spin states (2s+1)
      3 3 #   colour rep (1: singlet, 3: triplet, 8: octet)
      4 1 #   particle/antiparticle distinction (0=own anti)
###################################
## INFORMATION FOR QNUMBERS 2000002
###################################
BLOCK QNUMBERS 2000002 #   ur
      1 2 #   3 times electric charge
      2 1 #   number of spin states (2s+1)
      3 3 #   colour rep (1: singlet, 3: triplet, 8: octet)
      4 1 #   particle/antiparticle distinction (0=own anti)
###################################
## INFORMATION FOR QNUMBERS 2000004
###################################
BLOCK QNUMBERS 2000004 #   cr
      1 2 #   3 times electric charge
      2 1 #   number of spin states (2s+1)
      3 3 #   colour rep (1: singlet, 3: triplet, 8: octet)
      4 1 #   particle/antiparticle distinction (0=own anti)
###################################
## INFORMATION FOR QNUMBERS 2000006
###################################
BLOCK QNUMBERS 2000006 #   t2
      1 2 #   3 times electric charge
      2 1 #   number of spin states (2s+1)
      3 3 #   colour rep (1: singlet, 3: triplet, 8: octet)
      4 1 #   particle/antiparticle distinction (0=own anti)
###################################
## INFORMATION FOR QNUMBERS 1000001
###################################
BLOCK QNUMBERS 1000001 #   dl
      1 -1 #   3 times electric charge
      2 1 #   number of spin states (2s+1)
      3 3 #   colour rep (1: singlet, 3: triplet, 8: octet)
      4 1 #   particle/antiparticle distinction (0=own anti)
###################################
## INFORMATION FOR QNUMBERS 1000003
###################################
BLOCK QNUMBERS 1000003 #   sl
      1 -1 #   3 times electric charge
      2 1 #   number of spin states (2s+1)
      3 3 #   colour rep (1: singlet, 3: triplet, 8: octet)
      4 1 #   particle/antiparticle distinction (0=own anti)
###################################
## INFORMATION FOR QNUMBERS 1000005
###################################
BLOCK QNUMBERS 1000005 #   b1
      1 -1 #   3 times electric charge
      2 1 #   number of spin states (2s+1)
      3 3 #   colour rep (1: singlet, 3: triplet, 8: octet)
      4 1 #   particle/antiparticle distinction (0=own anti)
###################################
## INFORMATION FOR QNUMBERS 2000001
###################################
BLOCK QNUMBERS 2000001 #   dr
      1 -1 #   3 times electric charge
      2 1 #   number of spin states (2s+1)
      3 3 #   colour rep (1: singlet, 3: triplet, 8: octet)
      4 1 #   particle/antiparticle distinction (0=own anti)
###################################
## INFORMATION FOR QNUMBERS 2000003
###################################
BLOCK QNUMBERS 2000003 #   sr
      1 -1 #   3 times electric charge
      2 1 #   number of spin states (2s+1)
      3 3 #   colour rep (1: singlet, 3: triplet, 8: octet)
      4 1 #   particle/antiparticle distinction (0=own anti)
###################################
## INFORMATION FOR QNUMBERS 2000005
###################################
BLOCK QNUMBERS 2000005 #   b2
      1 -1 #   3 times electric charge
      2 1 #   number of spin states (2s+1)
      3 3 #   colour rep (1: singlet, 3: triplet, 8: octet)
      4 1 #   particle/antiparticle distinction (0=own anti)
###################################
## INFORMATION FOR MODSEL
###################################
BLOCK MODSEL # 
      1 1 # 
###################################
## INFORMATION FOR STOPMIX
###################################
BLOCK STOPMIX # 
      1 1 5.536450e-01 #   rru3x3
      1 2 8.327528e-01 #   rru3x6
      2 1 8.327528e-01 #   rru6x3
      2 2 -5.536450e-01 #   rru6x6
###################################
## INFORMATION FOR SBOTMIX
###################################
BLOCK SBOTMIX # 
      1 1 9.387379e-01 #   rrd3x3
      1 2 3.446319e-01 #   rrd3x6
      2 1 -3.446319e-01 #   rrd6x3
      2 2 9.387379e-01 #   rrd6x6
###################################
## INFORMATION FOR STAUMIX
###################################
BLOCK STAUMIX # 
      1 1 2.824872e-01 #   rrl3x3
      1 2 9.592711e-01 #   rrl3x6
      2 1 9.592711e-01 #   rrl6x3
      2 2 -2.824872e-01 #   rrl6x6
###################################
## INFORMATION FOR ALPHA
###################################
BLOCK ALPHA # 
        -1.138252e-01 #   alp
###################################
## INFORMATION FOR AE
###################################
BLOCK AE Q= 1.000000e+00 # 
      3 3 -2.517769e+02 # A_tau(Q) DRbar
      1 1 0.000000e+00 # A_e(Q) DRbar
      2 2 0.000000e+00 # A_mu(Q) DRbar
###################################
## INFORMATION FOR AU
###################################
BLOCK AU Q= 1.000000e+00 # 
      3 3 -4.981299e+02 # A_t(Q) DRbar
      1 1 0.000000e+00 # A_u(Q) DRbar
      2 2 0.000000e+00 # A_c(Q) DRbar
###################################
## INFORMATION FOR AD
###################################
BLOCK AD Q= 1.000000e+00 # 
      3 3 -7.972741e+02 # A_b(Q) DRbar
      1 1 0.000000e+00 # A_d(Q) DRbar
      2 2 0.000000e+00 # A_s(Q) DRbar
</slha>
## END BANNER##
<MGGenerationInfo>
#  Number of Events        :         3019
#  Integrated weight (pb)  :  0.10460E+02
#  Truncated wgt (pb)      :  0.30995E-01
#  Unit wgt                :  0.34647E-02
</MGGenerationInfo>
</header>
<init>
     2212     2212  0.65000000000E+04  0.65000000000E+04 0 0  247000  247000  3   3
  0.37053059150E+01  0.10876808616E-01  0.34647234184E-02   2
  0.41837224071E+01  0.12281185135E-01  0.34647234184E-02   1
  0.25499877330E+01  0.74854085413E-02  0.34647234184E-02   0
<generator name='MadGraph5_aMC@NLO' version='#5.2.3.3'>please cite 1405.0301 </generator>
</init>
<event>
 4   0  0.3464723E-02  0.6244031E+03  0.7816531E-02  0.9856032E-01
       21   -1    0    0  501  502  0.00000000000E+00  0.00000000000E+00  0.10332545724E+04  0.10332545724E+04  0.00000000000E+00 0.  1.
       21   -1    0    0  502  503  0.00000000000E+00  0.00000000000E+00 -0.37746628799E+03  0.37746628799E+03  0.00000000000E+00 0. -1.
  1000006    1    1    2  501    0 -0.23982490686E+03 -0.45810839437E+03  0.34123322341E+03  0.71156124101E+03  0.35000000000E+03 0.  0.
 -1000006    1    1    2    0  503  0.23982490686E+03  0.45810839437E+03  0.31455506095E+03  0.69915961934E+03  0.35000000000E+03 0.  0.
<scales pt_clust_1="13000.00000" pt_clust_2="13000.00000"></scales>
<clustering>
<clus scale="  624.403">  1  3  2 -1</clus>
<clus scale="  624.403">  1  3  2 -1</clus>
</clustering>
</event>
<event>
 4   0  0.3464723E-02  0.3629950E+03  0.7816531E-02  0.1057404E+00
       21   -1    0    0  503  502  0.00000000000E+00  0.00000000000E+00  0.65572719696E+03  0.65572719696E+03  0.00000000000E+00 0.  1.
       21   -1    0    0  501  503  0.00000000000E+00  0.00000000000E+00 -0.22084704471E+03  0.22084704471E+03  0.00000000000E+00 0.  1.
  1000006    1    1    2  501    0 -0.91554789230E+02 -0.29716307242E+02  0.85869789039E+02  0.37301334965E+03  0.35000000000E+03 0.  0.
 -1000006    1    1    2    0  502  0.91554789230E+02  0.29716307242E+02  0.34901036321E+03  0.50356089202E+03  0.35000000000E+03 0.  0.
<scales pt_clust_1="13000.00000" pt_clust_2="13000.00000"></scales>
<clustering>
<clus scale="  362.995">  2  3  1 -1</clus>
<clus scale="  362.995">  1  3  2 -1</clus>
</clustering>
</event>
<event>
 6   2  0.3464723E-02  0.3833420E+03  0.7816531E-02  0.1049705E+00
        2   -1    0    0  504    0  0.00000000000E+00  0.00000000000E+00  0.11680984017E+04  0.11680984017E+04  0.00000000000E+00 0. -1.
       21   -1    0    0  502  503  0.00000000000E+00  0.00000000000E+00 -0.50973864406E+03  0.50973864406E+03  0.00000000000E+00 0. -1.
  1000006    1    1    2  501    0 -0.28265236859E+03 -0.88457221883E+02  0.36615529256E+02  0.45995406136E+03  0.35000000000E+03 0.  0.
 -1000006    1    1    2    0  503  0.81459852209E+02 -0.10905753369E+03 -0.13823293484E+03  0.40017195985E+03  0.35000000000E+03 0.  0.
       21    1    1    2  504  501  0.34046149365E+02  0.65832925741E+01  0.33600231681E+02  0.48285148822E+02  0.00000000000E+00 0. -1.
        2    1    1    2  502    0  0.16714636702E+03  0.19093146300E+03  0.72637693156E+03  0.76942587575E+03  0.00000000000E+00 0. -1.
<scales pt_clust_1="13000.00000" pt_clust_2="13000.00000" pt_clust_3="34.67679" pt_clust_4="272.29046"></scales>
<clustering>
<clus scale="   34.677">  1  5  2 -1</clus>
<clus scale="  272.290">  1  6  2 -1</clus>
<clus scale="  383.342">  2  4  1 -1</clus>
<clus scale="  383.342">  2  3  1 -1</clus>
</clustering>
</event>
<event>
 6   2  0.3464723E-02  0.3557702E+03  0.7816531E-02  0.1060271E+00
       21   -1    0    0  505  502  0.00000000000E+00  0.00000000000E+00  0.12888594798E+04  0.12888594798E+04  0.00000000000E+00 0.  1.
       21   -1    0    0  501  503  0.00000000000E+00  0.00000000000E+00 -0.16837755438E+04  0.16837755438E+04  0.00000000000E+00 0.  1.
  1000006    1    1    2  501    0  0.70818964258E+02 -0.66065186713E+02 -0.89258902520E+03  0.96363639538E+03  0.35000000000E+03 0.  0.
 -1000006    1    1    2    0  502  0.10148217885E+03 -0.39791285864E+02 -0.11641076868E+03  0.38462117222E+03  0.35000000000E+03 0.  0.
       21    1    1    2  504  503 -0.16709513078E+02 -0.27315980548E+02 -0.49525661737E+03  0.49629072898E+03  0.00000000000E+00 0.  1.
       21    1    1    2  505  504 -0.15559163003E+03  0.13317245313E+03  0.11093403473E+04  0.11280867270E+04  0.00000000000E+00 0.  1.
<scales pt_clust_1="13000.00000" pt_clust_2="13000.00000" pt_clust_3="32.02141" pt_clust_4="204.76168"></scales>
<clustering>
<clus scale="   32.021">  2  5  1 -1</clus>
<clus scale="  204.762">  1  6  2 -1</clus>
<clus scale="  355.770">  1  4  2 -1</clus>
<clus scale="  355.770">  1  3  2 -1</clus>
</clustering>
</event>
<event>
 6   2  0.3464723E-02  0.3784592E+03  0.7816531E-02  0.1051505E+00
        1   -1    0    0  504    0  0.00000000000E+00  0.00000000000E+00  0.10429900912E+04  0.10429900912E+04  0.00000000000E+00 0. -1.
       21   -1    0    0  502  503  0.00000000000E+00  0.00000000000E+00 -0.37286972009E+03  0.37286972009E+03  0.00000000000E+00 0. -1.
  1000006    1    1    2  501    0  0.12060390181E+03 -0.92915543609E+02  0.31472049008E+02  0.38297400597E+03  0.35000000000E+03 0.  0.
 -1000006    1    1    2    0  503 -0.57276936015E+02  0.13384380273E+03  0.63984936879E+01  0.37912498157E+03  0.35000000000E+03 0.  0.
       21    1    1    2  504  501  0.29864511867E+02 -0.36259619963E+02  0.73191117802E+02  0.86968895785E+02  0.00000000000E+00 0.  1.
        1    1    1    2  502    0 -0.93191477664E+02 -0.46686391547E+01  0.55905871061E+03  0.56679192797E+03  0.00000000000E+00 0. -1.
<scales pt_clust_1="13000.00000" pt_clust_2="13000.00000" pt_clust_3="46.97498" pt_clust_4="80.02792"></scales>
<clustering>
<clus scale="   46.975">  1  5  2 -1</clus>
<clus scale="   80.028">  1  6  2 -1</clus>
<clus scale="  378.459">  2  4  1 -1</clus>
<clus scale="  378.459">  2  3  1 -1</clus>
</clustering>
</event>
<event>
 6   2  0.3464723E-02  0.3936612E+03  0.7816531E-02  0.1045997E+00
       21   -1    0    0  505  502  0.00000000000E+00  0.00000000000E+00  0.46859924254E+03  0.46859924254E+03  0.00000000000E+00 0. -1.
       21   -1    0    0  504  503  0.00000000000E+00  0.00000000000E+00 -0.85979083584E+03  0.85979083584E+03  0.00000000000E+00 0.  1.
  1000006    1    1    2  501    0 -0.24533140182E+02 -0.19264389590E+03 -0.27034974795E+03  0.48301400788E+03  0.35000000000E+03 0.  0.
 -1000006    1    1    2    0  502  0.60233087032E+02  0.14388168291E+03 -0.52383966864E+01  0.38321978583E+03  0.35000000000E+03 0.  0.
       21    1    1    2  504  501  0.89257201099E+02 -0.19135147590E+02 -0.25020997030E+03  0.26634194386E+03  0.00000000000E+00 0.  1.
       21    1    1    2  505  503 -0.12495714795E+03  0.67897360588E+02  0.13460652164E+03  0.19581434081E+03  0.00000000000E+00 0. -1.
<scales pt_clust_1="13000.00000" pt_clust_2="13000.00000" pt_clust_3="91.28528" pt_clust_4="137.76352"></scales>
<clustering>
<clus scale="   91.285">  2  5  1 -1</clus>
<clus scale="  137.764">  1  6  2 -1</clus>
<clus scale="  393.661">  2  3  1 -1</clus>
<clus scale="  393.661">  1  3  2 -1</clus>
</clustering>
</event>
<event>
 5   1  0.3464723E-02  0.4609623E+03  0.7816531E-02  0.1024502E+00
       21   -1    0    0  504  502  0.00000000000E+00  0.00000000000E+00  0.82247350604E+03  0.82247350604E+03  0.00000000000E+00 0.  1.
       21   -1    0    0  501  503  0.00000000000E+00  0.00000000000E+00 -0.44792614970E+03  0.44792614970E+03  0.00000000000E+00 0.  1.
  1000006    1    1    2  501    0  0.11858581576E+03 -0.28378691167E+03 -0.15651373225E+03  0.49152228364E+03  0.35000000000E+03 0.  0.
 -1000006    1    1    2    0  502 -0.85445862526E+02  0.28591317317E+03  0.56690173628E+03  0.73001706597E+03  0.35000000000E+03 0.  0.
       21    1    1    2  504  503 -0.33139953234E+02 -0.21262615011E+01 -0.35840647690E+02  0.48860306130E+02  0.00000000000E+00 0.  1.
<scales pt_clust_1="13000.00000" pt_clust_2="13000.00000" pt_clust_3="33.20809"></scales>
<clustering>
<clus scale="   33.208">  2  5  1 -1</clus>
<clus scale="  460.962">  2  3  1 -1</clus>
<clus scale="  460.962">  1  3  2 -1</clus>
</clustering>
</event>
<event>
 4   0  0.3464723E-02  0.7380609E+03  0.7816531E-02  0.9654269E-01
       21   -1    0    0  501  502  0.00000000000E+00  0.00000000000E+00  0.76166937741E+03  0.76166937741E+03  0.00000000000E+00 0.  1.
       21   -1    0    0  502  503  0.00000000000E+00  0.00000000000E+00 -0.71547744342E+03  0.71547744342E+03  0.00000000000E+00 0. -1.
  1000006    1    1    2  501    0 -0.54764381910E+03 -0.34974300787E+03  0.38047667074E+02  0.73904096579E+03  0.35000000000E+03 0.  0.
 -1000006    1    1    2    0  503  0.54764381910E+03  0.34974300787E+03  0.81442669184E+01  0.73810585503E+03  0.35000000000E+03 0.  0.
<scales pt_clust_1="13000.00000" pt_clust_2="13000.00000"></scales>
<clustering>
<clus scale="  738.061">  1  3  2 -1</clus>
<clus scale="  738.061">  1  3  2 -1</clus>
</clustering>
</event>
<event>
 5   1  0.3464723E-02  0.4139298E+03  0.7816531E-02  0.1039060E+00
       21   -1    0    0  504  502  0.00000000000E+00  0.00000000000E+00  0.41282940376E+03  0.41282940376E+03  0.00000000000E+00 0.  1.
       21   -1    0    0  501  503  0.00000000000E+00  0.00000000000E+00 -0.72436534666E+03  0.72436534666E+03  0.00000000000E+00 0.  1.
  1000006    1    1    2  501    0  0.33016104608E+03  0.88730043478E+02 -0.10171339595E+03  0.49972487619E+03  0.35000000000E+03 0.  0.
 -1000006    1    1    2    0  502 -0.13009670383E+03 -0.29713125991E+02 -0.56997809280E+02  0.37888886559E+03  0.35000000000E+03 0.  0.
       21    1    1    2  504  503 -0.20006434225E+03 -0.59016917486E+02 -0.15282473767E+03  0.25858100865E+03  0.00000000000E+00 0.  1.
<scales pt_clust_1="13000.00000" pt_clust_2="13000.00000" pt_clust_3="208.58748"></scales>
<clustering>
<clus scale="  208.587">  2  5  1 -1</clus>
<clus scale="  413.930">  2  3  1 -1</clus>
<clus scale="  413.930">  1  3  2 -1</clus>
</clustering>
</event>
<event>
 5   1  0.3464723E-02  0.4514805E+03  0.7816531E-02  0.1027281E+00
        2   -1    0    0  503    0  0.00000000000E+00  0.00000000000E+00  0.13275774471E+04  0.13275774471E+04  0.00000000000E+00 0. -1.
       21   -1    0    0  501  503  0.00000000000E+00  0.00000000000E+00 -0.53840321272E+03  0.53840321272E+03  0.00000000000E+00 0.  1.
  1000006    1    1    2  501    0 -0.13724679469E+02  0.29588686529E+03 -0.20556023543E+03  0.50248623291E+03  0.35000000000E+03 0.  0.
 -1000006    1    1    2    0  502 -0.55672319929E+02 -0.26528876448E+03  0.85217831853E+02  0.45082104502E+03  0.35000000000E+03 0.  0.
        2    1    1    2  502    0  0.69396999398E+02 -0.30598100807E+02  0.90951663791E+03  0.91267338185E+03  0.00000000000E+00 0. -1.
<scales pt_clust_1="13000.00000" pt_clust_2="13000.00000" pt_clust_3="75.84318"></scales>
<clustering>
<clus scale="   75.843">  1  5  2 -1</clus>
<clus scale="  451.481">  1  4  2 -1</clus>
<clus scale="  451.481">  2  3  1 -1</clus>
</clustering>
</event>
<event>
 5   1  0.3464723E-02  0.4154755E+03  0.7816531E-02  0.1038549E+00
       21   -1    0    0  504  502  0.00000000000E+00  0.00000000000E+00  0.51232565551E+03  0.51232565551E+03  0.00000000000E+00 0.  1.
       21   -1    0    0  501  503  0.00000000000E+00  0.00000000000E+00 -0.10405152072E+04  0.10405152072E+04  0.00000000000E+00 0.  1.
  1000006    1    1    2  501    0  0.53766700184E+02  0.21789510484E+03 -0.73797954462E+03  0.84704364884E+03  0.35000000000E+03 0.  0.
 -1000006    1    1    2    0  502  0.87255859877E+02 -0.24017452920E+03 -0.21612916372E+02  0.43389458133E+03  0.35000000000E+03 0.  0.
       21    1    1    2  504  503 -0.14102256006E+03  0.22279424355E+02  0.23140290926E+03  0.27190263259E+03  0.00000000000E+00 0.  1.
<scales pt_clust_1="13000.00000" pt_clust_2="13000.00000" pt_clust_3="142.77162"></scales>
<clustering>
<clus scale="  142.772">  1  5  2 -1</clus>
<clus scale="  415.476">  1  4  2 -1</clus>
<clus scale="  415.476">  1  3  2 -1</clus>
</clustering>
</event>
<event>
 5   1  0.3464723E-02  0.3938911E+03  0.7816531E-02  0.1045916E+00
       21   -1    0    0  501  502  0.00000000000E+00  0.00000000000E+00  0.11400326213E+04  0.11400326213E+04  0.00000000000E+00 0. -1.
       21   -1    0    0  504  503  0.00000000000E+00  0.00000000000E+00 -0.15776062849E+03  0.15776062849E+03  0.00000000000E+00 0. -1.
  1000006    1    1    2  501    0  0.13361988980E+03  0.94018230730E+02  0.51763340314E+03  0.64586224747E+03  0.35000000000E+03 0.  0.
 -1000006    1    1    2    0  503 -0.18113847032E+03 -0.75759918975E+02  0.37720577536E+03  0.55075848402E+03  0.35000000000E+03 0.  0.
       21    1    1    2  504  502  0.47518580519E+02 -0.18258311755E+02  0.87432814271E+02  0.10117251828E+03  0.00000000000E+00 0.  1.
<scales pt_clust_1="13000.00000" pt_clust_2="13000.00000" pt_clust_3="50.90561"></scales>
<clustering>
<clus scale="   50.906">  1  5  2 -1</clus>
<clus scale="  393.891">  1  3  2 -1</clus>
<clus scale="  393.891">  1  3  2 -1</clus>
</clustering>
</event>
<event>
 4   0  0.3464723E-02  0.4894863E+03  0.7816531E-02  0.1016560E+00
       21   -1    0    0  501  502  0.00000000000E+00  0.00000000000E+00  0.72355205165E+03  0.72355205165E+03  0.00000000000E+00 0.  1.
       21   -1    0    0  502  503  0.00000000000E+00  0.00000000000E+00 -0.33258404349E+03  0.33258404349E+03  0.00000000000E+00 0. -1.
  1000006    1    1    2  501    0 -0.61004065443E+02  0.33671258738E+03  0.23028273279E+03  0.54095008968E+03  0.35000000000E+03 0.  0.
 -1000006    1    1    2    0  503  0.61004065443E+02 -0.33671258738E+03  0.16068527537E+03  0.51518600546E+03  0.35000000000E+03 0.  0.
<scales pt_clust_1="13000.00000" pt_clust_2="13000.00000"></scales>
<clustering>
<clus scale="  489.486">  1  3  2 -1</clus>
<clus scale="  489.486">  1  3  2 -1</clus>
</clustering>
</event>
<event>
 4   0  0.3464723E-02  0.4629162E+03  0.7816531E-02  0.1023939E+00
       21   -1    0    0  503  502  0.00000000000E+00  0.00000000000E+00  0.20508292079E+03  0.20508292079E+03  0.00000000000E+00 0. -1.
       21   -1    0    0  501  503  0.00000000000E+00  0.00000000000E+00 -0.10475761323E+04  0.10475761323E+04  0.00000000000E+00 0. -1.
  1000006    1    1    2  501    0 -0.27986625253E+03 -0.11604433051E+03 -0.45289561950E+03  0.64761550947E+03  0.35000000000E+03 0.  0.
 -1000006    1    1    2    0  502  0.27986625253E+03  0.11604433051E+03 -0.38959759197E+03  0.60504354357E+03  0.35000000000E+03 0.  0.
<scales pt_clust_1="13000.00000" pt_clust_2="13000.00000"></scales>
<clustering>
<clus scale="  462.916">  2  3  1 -1</clus>
<clus scale="  462.916">  1  3  2 -1</clus>
</clustering>
</event>
<event>
 6   2  0.3464723E-02  0.3647254E+03  0.7816531E-02  0.1056728E+00
       21   -1    0    0  501  503  0.00000000000E+00  0.00000000000E+00  0.13618842655E+03  0.13618842655E+03  0.00000000000E+00 0.  1.
        1   -1    0    0  504    0  0.00000000000E+00  0.00000000000E+00 -0.24611279055E+04  0.24611279055E+04  0.00000000000E+00 0.  1.
  1000006    1    1    2  501    0  0.28141467019E+01  0.19265340042E+03 -0.55139410305E+03  0.68092489233E+03  0.35000000000E+03 0.  0.
 -1000006    1    1    2    0  502  0.60186597333E+02 -0.21593735435E+02 -0.63217216461E+03  0.72541737063E+03  0.35000000000E+03 0.  0.
       21    1    1    2  504  503 -0.36327146949E+02 -0.13447624734E+03 -0.17560053524E+03  0.22414073855E+03  0.00000000000E+00 0.  1.
        1    1    1    2  502    0 -0.26673597085E+02 -0.36583417642E+02 -0.96577267605E+03  0.96683333053E+03  0.00000000000E+00 0.  1.
<scales pt_clust_1="13000.00000" pt_clust_2="13000.00000" pt_clust_3="144.96508" pt_clust_4="45.27502"></scales>
<clustering>
<clus scale="   45.275">  2  6  1 -1</clus>
<clus scale="  144.965">  1  5  2 -1</clus>
<clus scale="  364.725">  1  3  2 -1</clus>
<clus scale="  364.725">  1  3  2 -1</clus>
</clustering>
</event>
<event>
 6   2  0.3464723E-02  0.3506495E+03  0.7816531E-02  0.1062349E+00
       21   -1    0    0  504  502  0.00000000000E+00  0.00000000000E+00  0.13830459823E+04  0.13830459823E+04  0.00000000000E+00 0.  1.
       21   -1    0    0  502  503  0.00000000000E+00  0.00000000000E+00 -0.28122877937E+03  0.28122877937E+03  0.00000000000E+00 0.  1.
  1000006    1    1    2  501    0  0.30627015045E+02 -0.39443052895E+01  0.22795527704E+03  0.41882834183E+03  0.35000000000E+03 0.  0.
 -1000006    1    1    2    0  505  0.34636932605E+02 -0.46815894193E+02  0.13857774891E+03  0.38091368779E+03  0.35000000000E+03 0.  0.
       21    1    1    2  504  501 -0.21473629145E+02  0.25358754701E+02  0.78959077150E+03  0.79028967450E+03  0.00000000000E+00 0.  1.
       21    1    1    2  505  503 -0.43790318505E+02  0.25401444782E+02 -0.54306594498E+02  0.74243057573E+02  0.00000000000E+00 0.  1.
<scales pt_clust_1="13000.00000" pt_clust_2="13000.00000" pt_clust_3="33.22925" pt_clust_4="51.15073"></scales>
<clustering>
<clus scale="   33.229">  1  5  2 -1</clus>
<clus scale="   51.151">  2  6  1 -1</clus>
<clus scale="  350.649">  1  3  2 -1</clus>
<clus scale="  350.649">  1  3  2 -1</clus>
</clustering>
</event>
<event>
 4   0  0.3464723E-02  0.5536694E+03  0.7816531E-02  0.1000648E+00
       21   -1    0    0  501  502  0.00000000000E+00  0.00000000000E+00  0.10265143924E+04  0.10265143924E+04  0.00000000000E+00 0. -1.
       21   -1    0    0  502  503  0.00000000000E+00  0.00000000000E+00 -0.43583865139E+03  0.43583865139E+03  0.00000000000E+00 0.  1.
  1000006    1    1    2  501    0 -0.26688129323E+03  0.33589318014E+03  0.70558660185E+03  0.89688477847E+03  0.35000000000E+03 0.  0.
 -1000006    1    1    2    0  503  0.26688129323E+03 -0.33589318014E+03 -0.11491086084E+03  0.56546826532E+03  0.35000000000E+03 0.  0.
<scales pt_clust_1="13000.00000" pt_clust_2="13000.00000"></scales>
<clustering>
<clus scale="  553.669">  1  3  2 -1</clus>
<clus scale="  553.669">  1  3  2 -1</clus>
</clustering>
</event>
<event>
 4   0  0.3464723E-02  0.3849769E+03  0.7816531E-02  0.1049109E+00
       21   -1    0    0  503  502  0.00000000000E+00  0.00000000000E+00  0.60476233129E+03  0.60476233129E+03  0.00000000000E+00 0.  1.
       21   -1    0    0  501  503  0.00000000000E+00  0.00000000000E+00 -0.24712166609E+03  0.24712166609E+03  0.00000000000E+00 0.  1.
  1000006    1    1    2  501    0 -0.14388293081E+03 -0.70745223790E+02  0.13997989069E+03  0.40963588010E+03  0.35000000000E+03 0.  0.
 -1000006    1    1    2    0  502  0.14388293081E+03  0.70745223790E+02  0.21766077451E+03  0.44224811727E+03  0.35000000000E+03 0.  0.
<scales pt_clust_1="13000.00000" pt_clust_2="13000.00000"></scales>
<clustering>
<clus scale="  384.977">  2  3  1 -1</clus>
<clus scale="  384.977">  1  3  2 -1</clus>
</clustering>
</event>
<event>
 6   2  0.3464723E-02  0.3551744E+03  0.7816531E-02  0.1060511E+00
       21   -1    0    0  505  502  0.00000000000E+00  0.00000000000E+00  0.98315529875E+03  0.98315529875E+03  0.00000000000E+00 0.  1.
       21   -1    0    0  504  503  0.00000000000E+00  0.00000000000E+00 -0.21515859174E+03  0.21515859174E+03  0.00000000000E+00 0.  1.
  1000006    1    1    2  501    0 -0.41976390216E+02 -0.77753690554E+01  0.20629803039E+03  0.40851113943E+03  0.35000000000E+03 0.  0.
 -1000006    1    1    2    0  503  0.77319150080E+02  0.66956440666E+01  0.18789374502E+03  0.40475565720E+03  0.35000000000E+03 0.  0.
       21    1    1    2  504  502 -0.48760594441E+01  0.38315672829E+02  0.10304938357E+03  0.11005018035E+03  0.00000000000E+00 0. -1.
       21    1    1    2  505  501 -0.30466700420E+02 -0.37235947840E+02  0.27075554803E+03  0.27499691350E+03  0.00000000000E+00 0.  1.
<scales pt_clust_1="13000.00000" pt_clust_2="13000.00000" pt_clust_3="38.62469" pt_clust_4="40.78658"></scales>
<clustering>
<clus scale="   38.625">  1  5  2 -1</clus>
<clus scale="   40.787">  1  6  2 -1</clus>
<clus scale="  355.174">  2  4  1 -1</clus>
<clus scale="  355.174">  1  3  2 -1</clus>
</clustering>
</event>
<event>
 6   2  0.3464723E-02  0.3720041E+03  0.7816531E-02  0.1053929E+00
       21   -1    0    0  504  502  0.00000000000E+00  0.00000000000E+00  0.57600773566E+03  0.57600773566E+03  0.00000000000E+00 0.  1.
       21   -1    0    0  501  503  0.00000000000E+00  0.00000000000E+00 -0.54290833495E+03  0.54290833495E+03  0.00000000000E+00 0.  1.
  1000006    1    1    2  501    0  0.11193239511E+03  0.73442612880E+02 -0.37101349677E+03  0.52732693203E+03  0.35000000000E+03 0.  0.
 -1000006    1    1    2    0  502 -0.80063942815E+02 -0.36182768986E+02  0.30712571257E+03  0.47386246004E+03  0.35000000000E+03 0.  0.
       21    1    1    2  504  505 -0.31798162383E+02 -0.36448512020E+01  0.36656511351E+02  0.48663208851E+02  0.00000000000E+00 0. -1.
       21    1    1    2  505  503 -0.70289909615E-01 -0.33614992693E+02  0.60330673559E+02  0.69063469696E+02  0.00000000000E+00 0. -1.
<scales pt_clust_1="13000.00000" pt_clust_2="13000.00000" pt_clust_3="32.00638" pt_clust_4="34.28284"></scales>
<clustering>
<clus scale="   32.006">  1  5  2 -1</clus>
<clus scale="   34.283">  1  6  2 -1</clus>
<clus scale="  372.004">  1  4  2 -1</clus>
<clus scale="  372.004">  1  3  2 -1</clus>
</clustering>
</event>
<event>
 5   1  0.3464723E-02  0.4102750E+03  0.7816531E-02  0.1040279E+00
       21   -1    0    0  503  502  0.00000000000E+00  0.00000000000E+00  0.84565937186E+03  0.84565937186E+03  0.00000000000E+00 0. -1.
       21   -1    0    0  501  503  0.00000000000E+00  0.00000000000E+00 -0.90232573709E+03  0.90232573709E+03  0.00000000000E+00 0. -1.
  1000006    1    1    2  501    0 -0.20507919516E+03 -0.61478517930E+01 -0.45942070693E+03  0.61291325514E+03  0.35000000000E+03 0.  0.
 -1000006    1    1    2    0  504  0.19361023226E+03 -0.23404121321E+03 -0.18580669359E+03  0.49928382600E+03  0.35000000000E+03 0.  0.
       21    1    1    2  504  502  0.11468962896E+02  0.24018906501E+03  0.58856103529E+03  0.63578802782E+03  0.00000000000E+00 0. -1.
<scales pt_clust_1="13000.00000" pt_clust_2="13000.00000" pt_clust_3="240.46273"></scales>
<clustering>
<clus scale="  240.463">  1  5  2 -1</clus>
<clus scale="  410.275">  1  4  2 -1</clus>
<clus scale="  410.275">  1  3  2 -1</clus>
</clustering>
</event>
<event>
 4   0  0.3464723E-02  0.4137701E+03  0.7816531E-02  0.1039113E+00
       21   -1    0    0  503  502  0.00000000000E+00  0.00000000000E+00  0.50052342023E+03  0.50052342023E+03  0.00000000000E+00 0. -1.
       21   -1    0    0  501  503  0.00000000000E+00  0.00000000000E+00 -0.34213516450E+03  0.34213516450E+03  0.00000000000E+00 0. -1.
  1000006    1    1    2  501    0 -0.21962636997E+03  0.21677920934E+02  0.72675752880E+02  0.42010408199E+03  0.35000000000E+03 0.  0.
 -1000006    1    1    2    0  502  0.21962636997E+03 -0.21677920934E+02  0.85712502855E+02  0.42255450274E+03  0.35000000000E+03 0.  0.
<scales pt_clust_1="13000.00000" pt_clust_2="13000.00000"></scales>
<clustering>
<clus scale="  413.770">  2  3  1 -1</clus>
<clus scale="  413.770">  1  3  2 -1</clus>
</clustering>
</event>
<event>
 6   2  0.3464723E-02  0.3896780E+03  0.7816531E-02  0.1047414E+00
       21   -1    0    0  504  503  0.00000000000E+00  0.00000000000E+00  0.87821483080E+03  0.87821483080E+03  0.00000000000E+00 0.  1.
        1   -1    0    0  501    0  0.00000000000E+00  0.00000000000E+00 -0.13133438994E+04  0.13133438994E+04  0.00000000000E+00 0. -1.
  1000006    1    1    2  501    0  0.10402339369E+03 -0.12268055901E+03 -0.30972598632E+03  0.49426872509E+03  0.35000000000E+03 0.  0.
 -1000006    1    1    2    0  503 -0.48671530376E+02  0.16718445716E+03  0.73190187618E+03  0.82975895111E+03  0.35000000000E+03 0.  0.
       21    1    1    2  504  502 -0.39605032852E+02 -0.11517680896E+02 -0.86194203351E+02  0.95554467670E+02  0.00000000000E+00 0.  1.
        1    1    1    2  502    0 -0.15746830465E+02 -0.32986217254E+02 -0.77111075509E+03  0.77197658631E+03  0.00000000000E+00 0. -1.
<scales pt_clust_1="13000.00000" pt_clust_2="13000.00000" pt_clust_3="45.55717" pt_clust_4="36.55206"></scales>
<clustering>
<clus scale="   36.552">  2  6  1 -1</clus>
<clus scale="   45.557">  2  5  1 -1</clus>
<clus scale="  389.678">  2  3  1 -1</clus>
<clus scale="  389.678">  1  3  2 -1</clus>
</clustering>
</event>
<event>
 6   2  0.3464723E-02  0.3577516E+03  0.7816531E-02  0.1059478E+00
       21   -1    0    0  504  502  0.00000000000E+00  0.00000000000E+00  0.46420541961E+03  0.46420541961E+03  0.00000000000E+00 0. -1.
       21   -1    0    0  505  503  0.00000000000E+00  0.00000000000E+00 -0.99022614952E+03  0.99022614952E+03  0.00000000000E+00 0.  1.
  1000006    1    1    2  501    0 -0.64593057348E+02 -0.11579264969E+03 -0.23461601463E+03  0.44172941390E+03  0.35000000000E+03 0.  0.
 -1000006    1    1    2    0  502 -0.63097042905E+02  0.50999133726E+02  0.25515631644E+03  0.44066642064E+03  0.35000000000E+03 0.  0.
       21    1    1    2  504  503  0.11203537566E+01  0.33804107387E+02 -0.66549325058E+02  0.74651091984E+02  0.00000000000E+00 0.  1.
       21    1    1    2  505  501  0.12656974650E+03  0.30989408581E+02 -0.48001170666E+03  0.49738464261E+03  0.00000000000E+00 0.  1.
<scales pt_clust_1="13000.00000" pt_clust_2="13000.00000" pt_clust_3="33.82267" pt_clust_4="136.26220"></scales>
<clustering>
<clus scale="   33.823">  2  5  1 -1</clus>
<clus scale="  136.262">  2  6  1 -1</clus>
<clus scale="  357.752">  1  4  2 -1</clus>
<clus scale="  357.752">  1  3  2 -1</clus>
</clustering>
</event>
<event>
 5   1  0.3464723E-02  0.3532078E+03  0.7816531E-02  0.1061306E+00
       21   -1    0    0  501  502  0.00000000000E+00  0.00000000000E+00  0.67269680439E+03  0.67269680439E+03  0.00000000000E+00 0. -1.
       21   -1    0    0  504  503  0.00000000000E+00  0.00000000000E+00 -0.28862815712E+03  0.28862815712E+03  0.00000000000E+00 0. -1.
  1000006    1    1    2  501    0 -0.33132082021E+02 -0.86052243143E+02  0.22734943243E+03  0.42742307827E+03  0.35000000000E+03 0.  0.
 -1000006    1    1    2    0  503  0.33616158709E+02  0.61640441993E+01 -0.69960443264E+01  0.35173425509E+03  0.35000000000E+03 0.  0.
       21    1    1    2  504  502 -0.48407668781E+00  0.79888198944E+02  0.16371525917E+03  0.18216762815E+03  0.00000000000E+00 0. -1.
<scales pt_clust_1="13000.00000" pt_clust_2="13000.00000" pt_clust_3="79.88967"></scales>
<clustering>
<clus scale="   79.890">  1  5  2 -1</clus>
<clus scale="  353.208">  1  3  2 -1</clus>
<clus scale="  353.208">  1  3  2 -1</clus>
</clustering>
</event>
<event>
 5   1  0.3464723E-02  0.5603411E+03  0.7816531E-02  0.9991283E-01
       21   -1    0    0  503  502  0.00000000000E+00  0.00000000000E+00  0.55225898202E+03  0.55225898202E+03  0.00000000000E+00 0.  1.
       21   -1    0    0  501  503  0.00000000000E+00  0.00000000000E+00 -0.76777259654E+03  0.76777259654E+03  0.00000000000E+00 0.  1.
  1000006    1    1    2  501    0 -0.31654973461E+03  0.30431936287E+03 -0.22031099369E+03  0.60320058276E+03  0.35000000000E+03 0.  0.
 -1000006    1    1    2    0  504  0.20703803541E+03 -0.39878650631E+03 -0.20893452049E+02  0.56994031447E+03  0.35000000000E+03 0.  0.
       21    1    1    2  504  502  0.10951169920E+03  0.94467143437E+02  0.25690831226E+02  0.14689068133E+03  0.00000000000E+00 0.  1.
<scales pt_clust_1="13000.00000" pt_clust_2="13000.00000" pt_clust_3="144.62660"></scales>
<clustering>
<clus scale="  144.627">  1  5  2 -1</clus>
<clus scale="  560.341">  2  3  1 -1</clus>
<clus scale="  560.341">  1  3  2 -1</clus>
</clustering>
</event>
<event>
 6   2  0.3464723E-02  0.3904773E+03  0.7816531E-02  0.1047128E+00
       21   -1    0    0  504  502  0.00000000000E+00  0.00000000000E+00  0.25865318698E+03  0.25865318698E+03  0.00000000000E+00 0. -1.
       21   -1    0    0  501  503  0.00000000000E+00  0.00000000000E+00 -0.83248422843E+03  0.83248422843E+03  0.00000000000E+00 0. -1.
  1000006    1    1    2  501    0  0.85900900676E+02 -0.14366824361E+03 -0.29697510812E+03  0.48858340517E+03  0.35000000000E+03 0.  0.
 -1000006    1    1    2    0  505 -0.92797673926E+02  0.15427466297E+03 -0.23807184338E+03  0.45998943741E+03  0.35000000000E+03 0.  0.
       21    1    1    2  504  503 -0.39854797849E+02 -0.20926820769E+02 -0.71561598093E+02  0.84542291551E+02  0.00000000000E+00 0. -1.
       21    1    1    2  505  502  0.46751571098E+02  0.10320401413E+02  0.32777508140E+02  0.58022281283E+02  0.00000000000E+00 0.  1.
<scales pt_clust_1="13000.00000" pt_clust_2="13000.00000" pt_clust_3="45.01485" pt_clust_4="47.15095"></scales>
<clustering>
<clus scale="   45.015">  2  5  1 -1</clus>
<clus scale="   47.151">  1  6  2 -1</clus>
<clus scale="  390.477">  1  4  2 -1</clus>
<clus scale="  390.477">  1  3  2 -1</clus>
</clustering>
</event>
<event>
 5   1  0.3464723E-02  0.4428450E+03  0.7816531E-02  0.1029877E+00
       21   -1    0    0  502  503  0.00000000000E+00  0.00000000000E+00  0.11684557366E+03  0.11684557366E+03  0.00000000000E+00 0. -1.
        2   -1    0    0  501    0  0.00000000000E+00  0.00000000000E+00 -0.34681146419E+04  0.34681146419E+04  0.00000000000E+00 0.  1.
  1000006    1    1    2  501    0 -0.20548561421E+03 -0.15100710381E+03 -0.56999874957E+03  0.71583940766E+03  0.35000000000E+03 0.  0.
 -1000006    1    1    2    0  503  0.28532354889E+03  0.11186344046E+02 -0.25347206096E+04  0.25746540021E+04  0.35000000000E+03 0.  0.
        2    1    1    2  502    0 -0.79837934675E+02  0.13982075976E+03 -0.24654970913E+03  0.29446680585E+03  0.00000000000E+00 0.  1.
<scales pt_clust_1="13000.00000" pt_clust_2="13000.00000" pt_clust_3="161.00913"></scales>
<clustering>
<clus scale="  161.009">  1  5  2 -1</clus>
<clus scale="  891.426">  3  4 -1 -1</clus>
<clus scale="  442.845">  1  3  2 -1</clus>
</clustering>
</event>
<event>
 4   0  0.3464723E-02  0.3887894E+03  0.7816531E-02  0.1047732E+00
       21   -1    0    0  503  502  0.00000000000E+00  0.00000000000E+00  0.50902998198E+03  0.50902998198E+03  0.00000000000E+00 0. -1.
       21   -1    0    0  501  503  0.00000000000E+00  0.00000000000E+00 -0.52498295702E+03  0.52498295702E+03  0.00000000000E+00 0. -1.
  1000006    1    1    2  501    0 -0.54949365822E+02  0.16011798102E+03 -0.34871465732E+03  0.52226345160E+03  0.35000000000E+03 0.  0.
 -1000006    1    1    2    0  502  0.54949365822E+02 -0.16011798102E+03  0.33276168229E+03  0.51174948740E+03  0.35000000000E+03 0.  0.
<scales pt_clust_1="13000.00000" pt_clust_2="13000.00000"></scales>
<clustering>
<clus scale="  388.789">  2  3  1 -1</clus>
<clus scale="  388.789">  1  3  2 -1</clus>
</clustering>
</event>
<event>
 4   0  0.3464723E-02  0.3759011E+03  0.7816531E-02  0.1052459E+00
       21   -1    0    0  501  502  0.00000000000E+00  0.00000000000E+00  0.48408406430E+03  0.48408406430E+03  0.00000000000E+00 0.  1.
       21   -1    0    0  502  503  0.00000000000E+00  0.00000000000E+00 -0.70458265340E+03  0.70458265340E+03  0.00000000000E+00 0.  1.
  1000006    1    1    2  501    0 -0.74968548181E+02  0.11480994851E+03  0.34460781977E+03  0.50995701479E+03  0.35000000000E+03 0.  0.
 -1000006    1    1    2    0  503  0.74968548181E+02 -0.11480994851E+03 -0.56510640886E+03  0.67870970291E+03  0.35000000000E+03 0.  0.
<scales pt_clust_1="13000.00000" pt_clust_2="13000.00000"></scales>
<clustering>
<clus scale="  375.901">  1  3  2 -1</clus>
<clus scale="  375.901">  1  3  2 -1</clus>
</clustering>
</event>
<event>
 6   2  0.3464723E-02  0.6738848E+03  0.7816531E-02  0.9920390E-01
       21   -1    0    0  502  503  0.00000000000E+00  0.00000000000E+00  0.70578348746E+03  0.70578348746E+03  0.00000000000E+00 0. -1.
        1   -1    0    0  504    0  0.00000000000E+00  0.00000000000E+00 -0.13644246877E+04  0.13644246877E+04  0.00000000000E+00 0.  1.
  1000006    1    1    2  501    0  0.12557306861E+02 -0.53916422750E+03 -0.33560245577E+03  0.72524806687E+03  0.35000000000E+03 0.  0.
 -1000006    1    1    2    0  503  0.18873917327E+03 -0.99877600693E+02  0.19191684637E+03  0.45269204385E+03  0.35000000000E+03 0.  0.
       21    1    1    2  504  501 -0.11526741800E+03  0.37874516169E+02 -0.89672512223E+02  0.15087152175E+03  0.00000000000E+00 0. -1.
        1    1    1    2  502    0 -0.86029062133E+02  0.60116731203E+03 -0.42528307865E+03  0.74139654273E+03  0.00000000000E+00 0.  1.
<scales pt_clust_1="13000.00000" pt_clust_2="13000.00000" pt_clust_3="121.33036" pt_clust_4="575.86547"></scales>
<clustering>
<clus scale="  121.330">  2  5  1 -1</clus>
<clus scale="  403.617">  1  4  2 -1</clus>
<clus scale="  575.865">  2  6  1 -1</clus>
<clus scale="  673.885">  1  3  2 -1</clus>
</clustering>
</event>
<event>
 6   2  0.3464723E-02  0.4060364E+03  0.7816531E-02  0.1041709E+00
       21   -1    0    0  504  502  0.00000000000E+00  0.00000000000E+00  0.14032591254E+04  0.14032591254E+04  0.00000000000E+00 0.  1.
       21   -1    0    0  502  503  0.00000000000E+00  0.00000000000E+00 -0.84238921465E+03  0.84238921465E+03  0.00000000000E+00 0.  1.
  1000006    1    1    2  501    0 -0.93820253000E+02 -0.11000075280E+03  0.86965361034E+03  0.94852506950E+03  0.35000000000E+03 0.  0.
 -1000006    1    1    2    0  503  0.15801217728E+03  0.13748120355E+03 -0.74107781601E+03  0.84591090482E+03  0.35000000000E+03 0.  0.
       21    1    1    2  504  505  0.30925369807E+02 -0.55852844247E+01  0.93585969186E+02  0.98721363080E+02  0.00000000000E+00 0.  1.
       21    1    1    2  505  501 -0.95117294083E+02 -0.21895166330E+02  0.33870814724E+03  0.35249100265E+03  0.00000000000E+00 0.  1.
<scales pt_clust_1="13000.00000" pt_clust_2="13000.00000" pt_clust_3="31.42569" pt_clust_4="90.02730"></scales>
<clustering>
<clus scale="   31.426">  1  5  2 -1</clus>
<clus scale="   90.027">  1  6  2 -1</clus>
<clus scale="  406.036">  2  4  1 -1</clus>
<clus scale="  406.036">  1  3  2 -1</clus>
</clustering>
</event>
<event>
 6   2  0.3464723E-02  0.4241876E+03  0.7816531E-02  0.1035712E+00
       21   -1    0    0  504  503  0.00000000000E+00  0.00000000000E+00  0.12235035514E+04  0.12235035514E+04  0.00000000000E+00 0.  1.
        1   -1    0    0  503    0  0.00000000000E+00  0.00000000000E+00 -0.69418323937E+03  0.69418323937E+03  0.00000000000E+00 0.  1.
  1000006    1    1    2  501    0 -0.26339106519E+03 -0.23508713263E+02  0.43671638445E+03  0.61899007526E+03  0.35000000000E+03 0.  0.
 -1000006    1    1    2    0  502  0.26108325129E+03 -0.32873340337E+02 -0.16675433012E+03  0.46856389876E+03  0.35000000000E+03 0.  0.
       21    1    1    2  504  501  0.41596677849E+02  0.44055508334E+02  0.54156193421E+03  0.54494082248E+03  0.00000000000E+00 0.  1.
        1    1    1    2  502    0 -0.39288863950E+02  0.12326545266E+02 -0.28220367652E+03  0.28519199426E+03  0.00000000000E+00 0.  1.
<scales pt_clust_1="13000.00000" pt_clust_2="13000.00000" pt_clust_3="60.51626" pt_clust_4="41.17716"></scales>
<clustering>
<clus scale="   41.177">  2  6  1 -1</clus>
<clus scale="   60.516">  1  5  2 -1</clus>
<clus scale="  424.188">  2  4  1 -1</clus>
<clus scale="  424.188">  1  3  2 -1</clus>
</clustering>
</event>
<event>
 6   2  0.3464723E-02  0.3625823E+03  0.7816531E-02  0.1057566E+00
        1   -1    0    0  503    0  0.00000000000E+00  0.00000000000E+00  0.47542409722E+03  0.47542409722E+03  0.00000000000E+00 0. -1.
       21   -1    0    0  501  503  0.00000000000E+00  0.00000000000E+00 -0.34338793608E+04  0.34338793608E+04  0.00000000000E+00 0. -1.
  1000006    1    1    2  501    0 -0.10126412696E+03 -0.72495576597E+02 -0.21287928874E+04  0.21609648747E+04  0.35000000000E+03 0.  0.
 -1000006    1    1    2    0  504  0.72435612769E+02 -0.40510893592E+02 -0.12350464023E+04  0.12863621832E+04  0.35000000000E+03 0.  0.
       21    1    1    2  504  502  0.21527597202E+02  0.78564462978E+02  0.32934213831E+02  0.87866231994E+02  0.00000000000E+00 0.  1.
        1    1    1    2  502    0  0.73009169926E+01  0.34442007212E+02  0.37244981230E+03  0.37411016817E+03  0.00000000000E+00 0. -1.
<scales pt_clust_1="13000.00000" pt_clust_2="13000.00000" pt_clust_3="102.25099" pt_clust_4="35.20732"></scales>
<clustering>
<clus scale="   35.207">  1  6  2 -1</clus>
<clus scale="  102.251">  1  5  2 -1</clus>
<clus scale="  362.582">  2  3  1 -1</clus>
<clus scale="  362.582">  2  3  1 -1</clus>
</clustering>
</event>
<event>
 4   0  0.3464723E-02  0.3902004E+03  0.7816531E-02  0.1047227E+00
       21   -1    0    0  501  502  0.00000000000E+00  0.00000000000E+00  0.33295509391E+03  0.33295509391E+03  0.00000000000E+00 0.  1.
       21   -1    0    0  502  503  0.00000000000E+00  0.00000000000E+00 -0.46268451827E+03  0.46268451827E+03  0.00000000000E+00 0.  1.
  1000006    1    1    2  501    0  0.81551653308E+02 -0.15200552944E+03 -0.21900914948E+02  0.39081453813E+03  0.35000000000E+03 0.  0.
 -1000006    1    1    2    0  503 -0.81551653308E+02  0.15200552944E+03 -0.10782850942E+03  0.40482507405E+03  0.35000000000E+03 0.  0.
<scales pt_clust_1="13000.00000" pt_clust_2="13000.00000"></scales>
<clustering>
<clus scale="  390.200">  1  3  2 -1</clus>
<clus scale="  390.200">  1  3  2 -1</clus>
</clustering>
</event>
<event>
 6   2  0.3464723E-02  0.4575410E+03  0.7816531E-02  0.1025497E+00
       21   -1    0    0  504  502  0.00000000000E+00  0.00000000000E+00  0.42635327818E+03  0.42635327818E+03  0.00000000000E+00 0.  1.
       21   -1    0    0  501  503  0.00000000000E+00  0.00000000000E+00 -0.78097214811E+03  0.78097214811E+03  0.00000000000E+00 0. -1.
  1000006    1    1    2  501    0 -0.19358206244E+03  0.18217867955E+03 -0.21253368857E+03  0.48819427993E+03  0.35000000000E+03 0.  0.
 -1000006    1    1    2    0  502  0.28820454231E+03 -0.17148410881E+03 -0.27925956692E+02  0.48553940812E+03  0.35000000000E+03 0.  0.
       21    1    1    2  504  505 -0.62464493243E+02 -0.49848355383E-01  0.41039106313E+02  0.74739705966E+02  0.00000000000E+00 0. -1.
       21    1    1    2  505  503 -0.32157986627E+02 -0.10644722385E+02 -0.15519833097E+03  0.15885203226E+03  0.00000000000E+00 0. -1.
<scales pt_clust_1="13000.00000" pt_clust_2="13000.00000" pt_clust_3="63.33385" pt_clust_4="33.87398"></scales>
<clustering>
<clus scale="   33.874">  2  6  1 -1</clus>
<clus scale="   63.334">  1  5  2 -1</clus>
<clus scale="  457.541">  2  3  1 -1</clus>
<clus scale="  457.541">  1  3  2 -1</clus>
</clustering>
</event>
<event>
 5   1  0.3464723E-02  0.4105549E+03  0.7816531E-02  0.1040185E+00
       -3   -1    0    0    0  501  0.00000000000E+00  0.00000000000E+00  0.15236662067E+04  0.15236662067E+04  0.00000000000E+00 0. -1.
       21   -1    0    0  501  503  0.00000000000E+00  0.00000000000E+00 -0.32668957972E+04  0.32668957972E+04  0.00000000000E+00 0.  1.
  1000006    1    1    2  502    0 -0.19783023685E+03 -0.17440062373E+02 -0.52611599111E+03  0.66237375740E+03  0.35000000000E+03 0.  0.
 -1000006    1    1    2    0  503  0.21278224850E+03  0.50787915366E+02 -0.26564825065E+04  0.26883554462E+04  0.35000000000E+03 0.  0.
       -3    1    1    2    0  502 -0.14952011642E+02 -0.33347852992E+02  0.14393689072E+04  0.14398328003E+04  0.00000000000E+00 0. -1.
<scales pt_clust_1="13000.00000" pt_clust_2="13000.00000" pt_clust_3="36.54644"></scales>
<clustering>
<clus scale="   36.546">  1  5  2 -1</clus>
<clus scale="  410.555">  1  3  2 -1</clus>
<clus scale="  410.555">  2  3  1 -1</clus>
</clustering>
</event>
<event>
 4   0  0.3464723E-02  0.4061744E+03  0.7816531E-02  0.1041662E+00
       21   -1    0    0  501  502  0.00000000000E+00  0.00000000000E+00  0.67008227121E+03  0.67008227121E+03  0.00000000000E+00 0.  1.
       21   -1    0    0  502  503  0.00000000000E+00  0.00000000000E+00 -0.42049725197E+03  0.42049725197E+03  0.00000000000E+00 0. -1.
  1000006    1    1    2  501    0  0.20510691409E+03 -0.20218704951E+02  0.47585524705E+03  0.62563236680E+03  0.35000000000E+03 0.  0.
 -1000006    1    1    2    0  503 -0.20510691409E+03  0.20218704951E+02 -0.22627022781E+03  0.46494715638E+03  0.35000000000E+03 0.  0.
<scales pt_clust_1="13000.00000" pt_clust_2="13000.00000"></scales>
<clustering>
<clus scale="  406.174">  1  3  2 -1</clus>
<clus scale="  406.174">  1  3  2 -1</clus>
</clustering>
</event>
<event>
 5   1  0.3464723E-02  0.4144639E+03  0.7816531E-02  0.1038883E+00
       21   -1    0    0  504  502  0.00000000000E+00  0.00000000000E+00  0.53019811348E+03  0.53019811348E+03  0.00000000000E+00 0.  1.
       21   -1    0    0  501  503  0.00000000000E+00  0.00000000000E+00 -0.82918339937E+03  0.82918339937E+03  0.00000000000E+00 0.  1.
  1000006    1    1    2  501    0 -0.15056990886E+03 -0.14796008670E+03 -0.61176505602E+03  0.73574449946E+03  0.35000000000E+03 0.  0.
 -1000006    1    1    2    0  502  0.19397766751E+03  0.21903493878E+03  0.26793139559E+03  0.52904713650E+03  0.35000000000E+03 0.  0.
       21    1    1    2  504  503 -0.43407758654E+02 -0.71074852082E+02  0.44848374549E+02  0.94589876887E+02  0.00000000000E+00 0. -1.
<scales pt_clust_1="13000.00000" pt_clust_2="13000.00000" pt_clust_3="83.28186"></scales>
<clustering>
<clus scale="   83.282">  1  5  2 -1</clus>
<clus scale="  414.464">  1  4  2 -1</clus>
<clus scale="  414.464">  1  3  2 -1</clus>
</clustering>
</event>
<event>
 4   0  0.3464723E-02  0.5672107E+03  0.7816531E-02  0.9975870E-01
       21   -1    0    0  501  502  0.00000000000E+00  0.00000000000E+00  0.22527338041E+03  0.22527338041E+03  0.00000000000E+00 0. -1.
       21   -1    0    0  502  503  0.00000000000E+00  0.00000000000E+00 -0.15729321013E+04  0.15729321013E+04  0.00000000000E+00 0.  1.
  1000006    1    1    2  501    0 -0.32724761074E+03  0.30354068001E+03 -0.40106557819E+03  0.69468089161E+03  0.35000000000E+03 0.  0.
 -1000006    1    1    2    0  503  0.32724761074E+03 -0.30354068001E+03 -0.94659314273E+03  0.11035245901E+04  0.35000000000E+03 0.  0.
<scales pt_clust_1="13000.00000" pt_clust_2="13000.00000"></scales>
<clustering>
<clus scale="  567.211">  1  3  2 -1</clus>
<clus scale="  567.211">  1  3  2 -1</clus>
</clustering>
</event>
<event>
 6   2  0.3464723E-02  0.3993819E+03  0.7816531E-02  0.1043994E+00
        2   -1    0    0  503    0  0.00000000000E+00  0.00000000000E+00  0.11454841734E+04  0.11454841734E+04  0.00000000000E+00 0. -1.
       21   -1    0    0  501  503  0.00000000000E+00  0.00000000000E+00 -0.56284405584E+03  0.56284405584E+03  0.00000000000E+00 0. -1.
  1000006    1    1    2  501    0  0.11067060472E+03  0.15246707018E+03 -0.28654794719E+03  0.49000399618E+03  0.35000000000E+03 0.  0.
 -1000006    1    1    2    0  504  0.63354895358E+02 -0.26388683658E+03  0.14765223618E+03  0.46685253361E+03  0.35000000000E+03 0.  0.
       21    1    1    2  504  502 -0.67980388669E+02  0.57635360776E+02  0.25937373722E+03  0.27425882596E+03  0.00000000000E+00 0. -1.
        2    1    1    2  502    0 -0.10604511141E+03  0.53784405626E+02  0.46216209131E+03  0.47721287345E+03  0.00000000000E+00 0. -1.
<scales pt_clust_1="13000.00000" pt_clust_2="13000.00000" pt_clust_3="32.35364" pt_clust_4="209.98991"></scales>
<clustering>
<clus scale="   32.354">  5  6 -1 -1</clus>
<clus scale="  209.990">  1  5  2 -1</clus>
<clus scale="  399.382">  1  4  2 -1</clus>
<clus scale="  399.382">  2  3  1 -1</clus>
</clustering>
</event>
<event>
 4   0  0.3464723E-02  0.4419811E+03  0.7816531E-02  0.1030141E+00
       21   -1    0    0  503  502  0.00000000000E+00  0.00000000000E+00  0.20453892272E+03  0.20453892272E+03  0.00000000000E+00 0.  1.
       21   -1    0    0  501  503  0.00000000000E+00  0.00000000000E+00 -0.13149067142E+04  0.13149067142E+04  0.00000000000E+00 0.  1.
  1000006    1    1    2  501    0 -0.52965435055E+02  0.26465445421E+03 -0.95261821518E+03  0.10501565509E+04  0.35000000000E+03 0.  0.
 -1000006    1    1    2    0  502  0.52965435055E+02 -0.26465445421E+03 -0.15774957628E+03  0.46928908602E+03  0.35000000000E+03 0.  0.
<scales pt_clust_1="13000.00000" pt_clust_2="13000.00000"></scales>
<clustering>
<clus scale="  441.981">  2  3  1 -1</clus>
<clus scale="  441.981">  1  3  2 -1</clus>
</clustering>
</event>
<event>
 6   2  0.3464723E-02  0.3877011E+03  0.7816531E-02  0.1048124E+00
        2   -1    0    0  501    0  0.00000000000E+00  0.00000000000E+00  0.23529965469E+04  0.23529965469E+04  0.00000000000E+00 0.  1.
       21   -1    0    0  504  503  0.00000000000E+00  0.00000000000E+00 -0.34053124197E+03  0.34053124197E+03  0.00000000000E+00 0. -1.
  1000006    1    1    2  501    0  0.24397510533E+03 -0.83153895795E+02  0.57843467210E+03  0.72355033847E+03  0.35000000000E+03 0.  0.
 -1000006    1    1    2    0  503 -0.32448691936E+02  0.10171447134E+03  0.35461952902E+03  0.50956232362E+03  0.35000000000E+03 0.  0.
       21    1    1    2  504  502 -0.16840227891E+03 -0.32114963957E+02 -0.15143285839E+03  0.22874135842E+03  0.00000000000E+00 0. -1.
        2    1    1    2  502    0 -0.43124134484E+02  0.13554388409E+02  0.12308439621E+04  0.12316737683E+04  0.00000000000E+00 0.  1.
<scales pt_clust_1="13000.00000" pt_clust_2="13000.00000" pt_clust_3="172.81095" pt_clust_4="45.20412"></scales>
<clustering>
<clus scale="   45.204">  1  6  2 -1</clus>
<clus scale="  172.811">  2  5  1 -1</clus>
<clus scale="  387.701">  1  3  2 -1</clus>
<clus scale="  387.701">  2  3  1 -1</clus>
</clustering>
</event>
<event>
 5   1  0.3464723E-02  0.6848405E+03  0.7816531E-02  0.9743514E-01
       21   -1    0    0  501  502  0.00000000000E+00  0.00000000000E+00  0.15295776401E+04  0.15295776401E+04  0.00000000000E+00 0. -1.
       21   -1    0    0  502  503  0.00000000000E+00  0.00000000000E+00 -0.39937218042E+03  0.39937218042E+03  0.00000000000E+00 0. -1.
  1000006    1    1    2  501    0 -0.22148583697E+03 -0.55508181075E+03  0.99325172551E+03  0.12108760394E+04  0.35000000000E+03 0.  0.
 -1000006    1    1    2    0  504  0.23049427869E+03  0.51710877061E+03  0.12484459544E+03  0.67721138957E+03  0.35000000000E+03 0.  0.
       21    1    1    2  504  503 -0.90084417110E+01  0.37973040139E+02  0.12109138715E+02  0.40862391509E+02  0.00000000000E+00 0. -1.
<scales pt_clust_1="13000.00000" pt_clust_2="13000.00000" pt_clust_3="39.02696"></scales>
<clustering>
<clus scale="   39.027">  2  5  1 -1</clus>
<clus scale="  684.841">  1  3  2 -1</clus>
<clus scale="  684.841">  1  3  2 -1</clus>
</clustering>
</event>
<event>
 5   1  0.3464723E-02  0.3721122E+03  0.7816531E-02  0.1053888E+00
       21   -1    0    0  501  502  0.00000000000E+00  0.00000000000E+00  0.33992862221E+03  0.33992862221E+03  0.00000000000E+00 0.  1.
       21   -1    0    0  504  503  0.00000000000E+00  0.00000000000E+00 -0.72830032613E+03  0.72830032613E+03  0.00000000000E+00 0.  1.
  1000006    1    1    2  501    0  0.64050551676E+02  0.16077337358E+03 -0.10569268313E+03  0.40450153781E+03  0.35000000000E+03 0.  0.
 -1000006    1    1    2    0  503 -0.10108083619E+03 -0.54106548975E+02 -0.36918956043E+03  0.52148421416E+03  0.35000000000E+03 0.  0.
       21    1    1    2  504  502  0.37030284518E+02 -0.10666682461E+03  0.86510539638E+02  0.14224319636E+03  0.00000000000E+00 0.  1.
<scales pt_clust_1="13000.00000" pt_clust_2="13000.00000" pt_clust_3="112.91171"></scales>
<clustering>
<clus scale="  112.912">  1  5  2 -1</clus>
<clus scale="  372.112">  1  3  2 -1</clus>
<clus scale="  372.112">  1  3  2 -1</clus>
</clustering>
</event>
<event>
 6   2  0.3464723E-02  0.3950341E+03  0.7816531E-02  0.1045513E+00
       21   -1    0    0  505  502  0.00000000000E+00  0.00000000000E+00  0.11266581724E+04  0.11266581724E+04  0.00000000000E+00 0.  1.
       21   -1    0    0  501  503  0.00000000000E+00  0.00000000000E+00 -0.11355432215E+04  0.11355432215E+04  0.00000000000E+00 0. -1.
  1000006    1    1    2  501    0 -0.12440458036E+03 -0.11268576198E+03 -0.72279643548E+03  0.82043236632E+03  0.35000000000E+03 0.  0.
 -1000006    1    1    2    0  504  0.54028310750E+02  0.25276438614E+03 -0.20729822640E+03  0.48195585683E+03  0.35000000000E+03 0.  0.
       21    1    1    2  504  502  0.11120535908E+03 -0.96224596330E+02  0.86580549096E+03  0.87820553005E+03  0.00000000000E+00 0.  1.
       21    1    1    2  505  503 -0.40829089469E+02 -0.43854027830E+02  0.55404121880E+02  0.81607640727E+02  0.00000000000E+00 0. -1.
<scales pt_clust_1="13000.00000" pt_clust_2="13000.00000" pt_clust_3="153.41312" pt_clust_4="59.91820"></scales>
<clustering>
<clus scale="   59.918">  1  6  2 -1</clus>
<clus scale="  153.413">  1  5  2 -1</clus>
<clus scale="  395.034">  1  4  2 -1</clus>
<clus scale="  395.034">  1  3  2 -1</clus>
</clustering>
</event>
<event>
 5   1  0.3464723E-02  0.3962992E+03  0.7816531E-02  0.1045069E+00
       21   -1    0    0  503  502  0.00000000000E+00  0.00000000000E+00  0.24504507681E+03  0.24504507681E+03  0.00000000000E+00 0.  1.
       21   -1    0    0  504  503  0.00000000000E+00  0.00000000000E+00 -0.10935997765E+04  0.10935997765E+04  0.00000000000E+00 0.  1.
  1000006    1    1    2  501    0  0.24301069206E+02 -0.16771096119E+03 -0.64045950326E+03  0.74927023415E+03  0.35000000000E+03 0.  0.
 -1000006    1    1    2    0  502 -0.65310315430E+02  0.18026025182E+03 -0.23392042785E+02  0.39975790593E+03  0.35000000000E+03 0.  0.
       21    1    1    2  504  501  0.41009246223E+02 -0.12549290632E+02 -0.18470315367E+03  0.18961671325E+03  0.00000000000E+00 0.  1.
<scales pt_clust_1="13000.00000" pt_clust_2="13000.00000" pt_clust_3="42.88640"></scales>
<clustering>
<clus scale="   42.886">  2  5  1 -1</clus>
<clus scale="  396.299">  1  4  2 -1</clus>
<clus scale="  396.299">  1  3  2 -1</clus>
</clustering>
</event>
<event>
 5   1  0.3464723E-02  0.3555706E+03  0.7816531E-02  0.1060352E+00
       21   -1    0    0  504  502  0.00000000000E+00  0.00000000000E+00  0.26220902610E+03  0.26220902610E+03  0.00000000000E+00 0. -1.
       21   -1    0    0  501  503  0.00000000000E+00  0.00000000000E+00 -0.76860614089E+03  0.76860614089E+03  0.00000000000E+00 0. -1.
  1000006    1    1    2  501    0  0.72016998668E+02 -0.14006933800E+02 -0.42185347671E+03  0.55303073884E+03  0.35000000000E+03 0.  0.
 -1000006    1    1    2    0  502  0.12639261035E+01  0.93202463151E+02 -0.60091905189E+02  0.36715028764E+03  0.35000000000E+03 0.  0.
       21    1    1    2  504  503 -0.73280924772E+02 -0.79195529351E+02 -0.24451732893E+02  0.11063414051E+03  0.00000000000E+00 0. -1.
<scales pt_clust_1="13000.00000" pt_clust_2="13000.00000" pt_clust_3="107.89822"></scales>
<clustering>
<clus scale="  107.898">  1  5  2 -1</clus>
<clus scale="  355.571">  1  4  2 -1</clus>
<clus scale="  355.571">  1  3  2 -1</clus>
</clustering>
</event>
<event>
 4   0  0.3464723E-02  0.7334342E+03  0.7816531E-02  0.9661704E-01
       21   -1    0    0  503  502  0.00000000000E+00  0.00000000000E+00  0.66762736988E+03  0.66762736988E+03  0.00000000000E+00 0.  1.
       21   -1    0    0  501  503  0.00000000000E+00  0.00000000000E+00 -0.98748497258E+03  0.98748497258E+03  0.00000000000E+00 0. -1.
  1000006    1    1    2  501    0  0.55659152021E+03 -0.32501016343E+03 -0.51496969692E+03  0.89616935645E+03  0.35000000000E+03 0.  0.
 -1000006    1    1    2    0  502 -0.55659152021E+03  0.32501016343E+03  0.19511209422E+03  0.75894298601E+03  0.35000000000E+03 0.  0.
<scales pt_clust_1="13000.00000" pt_clust_2="13000.00000"></scales>
<clustering>
<clus scale="  733.434">  2  3  1 -1</clus>
<clus scale="  733.434">  1  3  2 -1</clus>
</clustering>
</event>
<event>
 6   2  0.3464723E-02  0.3519627E+03  0.7816531E-02  0.1061812E+00
       21   -1    0    0  504  502  0.00000000000E+00  0.00000000000E+00  0.18797581258E+03  0.18797581258E+03  0.00000000000E+00 0.  1.
       21   -1    0    0  505  503  0.00000000000E+00  0.00000000000E+00 -0.14127368362E+04  0.14127368362E+04  0.00000000000E+00 0.  1.
  1000006    1    1    2  501    0 -0.76509894243E+01 -0.13701435694E+02 -0.77980954642E+03  0.85489718427E+03  0.35000000000E+03 0.  0.
 -1000006    1    1    2    0  502  0.38304111343E+01 -0.50734984517E+02 -0.86043236640E+02  0.36399471050E+03  0.35000000000E+03 0.  0.
       21    1    1    2  504  503 -0.44941283296E+02  0.54748000455E+02 -0.27780654739E+03  0.28669415807E+03  0.00000000000E+00 0. -1.
       21    1    1    2  505  501  0.48761861586E+02  0.96884197553E+01 -0.81101693204E+02  0.95126595983E+02  0.00000000000E+00 0. -1.
<scales pt_clust_1="13000.00000" pt_clust_2="13000.00000" pt_clust_3="66.49383" pt_clust_4="49.71503"></scales>
<clustering>
<clus scale="   49.715">  2  6  1 -1</clus>
<clus scale="   66.494">  2  5  1 -1</clus>
<clus scale="  351.963">  2  3  1 -1</clus>
<clus scale="  351.963">  1  3  2 -1</clus>
</clustering>
</event>
<event>
 5   1  0.3464723E-02  0.4295745E+03  0.7816531E-02  0.1033994E+00
       21   -1    0    0  504  502  0.00000000000E+00  0.00000000000E+00  0.12821658630E+04  0.12821658630E+04  0.00000000000E+00 0.  1.
       21   -1    0    0  501  503  0.00000000000E+00  0.00000000000E+00 -0.10218672611E+04  0.10218672611E+04  0.00000000000E+00 0.  1.
  1000006    1    1    2  501    0  0.20470593518E+03  0.12631224386E+03 -0.78995268594E+03  0.89687487916E+03  0.35000000000E+03 0.  0.
 -1000006    1    1    2    0  502 -0.22152956046E+03 -0.20515611644E+03  0.12559942913E+03  0.47899853326E+03  0.35000000000E+03 0.  0.
       21    1    1    2  504  503  0.16823625274E+02  0.78843872586E+02  0.92465185865E+03  0.92815971164E+03  0.00000000000E+00 0.  1.
<scales pt_clust_1="13000.00000" pt_clust_2="13000.00000" pt_clust_3="80.61880"></scales>
<clustering>
<clus scale="   80.619">  1  5  2 -1</clus>
<clus scale="  429.574">  2  3  1 -1</clus>
<clus scale="  429.574">  1  3  2 -1</clus>
</clustering>
</event>
<event>
 5   1  0.3464723E-02  0.6334380E+03  0.7816531E-02  0.9838363E-01
        1   -1    0    0  503    0  0.00000000000E+00  0.00000000000E+00  0.59968405843E+03  0.59968405843E+03  0.00000000000E+00 0.  1.
       -1   -1    0    0    0  501  0.00000000000E+00  0.00000000000E+00 -0.81667916571E+03  0.81667916571E+03  0.00000000000E+00 0. -1.
  1000006    1    1    2  502    0 -0.15941102606E+03 -0.51980080182E+03 -0.34675891862E+03  0.73372099360E+03  0.35000000000E+03 0.  0.
 -1000006    1    1    2    0  501  0.13763854953E+03  0.48043412791E+03  0.79667352581E+02  0.61531147286E+03  0.35000000000E+03 0.  0.
       21    1    1    2  503  502  0.21772476532E+02  0.39366673910E+02  0.50096458761E+02  0.67330757678E+02  0.00000000000E+00 0.  1.
<scales pt_clust_1="13000.00000" pt_clust_2="13000.00000" pt_clust_3="44.98640"></scales>
<clustering>
<clus scale="   44.986">  1  5  2 -1</clus>
<clus scale=" 1174.320">  3  4 -1 -1</clus>
<clus scale="  633.438">  1  3  2 -1</clus>
</clustering>
</event>
<event>
 4   0  0.3464723E-02  0.3559344E+03  0.7816531E-02  0.1060205E+00
       21   -1    0    0  501  502  0.00000000000E+00  0.00000000000E+00  0.15884008383E+03  0.15884008383E+03  0.00000000000E+00 0. -1.
       21   -1    0    0  502  503  0.00000000000E+00  0.00000000000E+00 -0.91148207251E+03  0.91148207251E+03  0.00000000000E+00 0. -1.
  1000006    1    1    2  501    0  0.64639943090E+02  0.33113787799E+01 -0.18714897397E+03  0.40213682489E+03  0.35000000000E+03 0.  0.
 -1000006    1    1    2    0  503 -0.64639943090E+02 -0.33113787799E+01 -0.56549301471E+03  0.66818533145E+03  0.35000000000E+03 0.  0.
<scales pt_clust_1="13000.00000" pt_clust_2="13000.00000"></scales>
<clustering>
<clus scale="  355.934">  1  3  2 -1</clus>
<clus scale="  355.934">  1  3  2 -1</clus>
</clustering>
</event>
<event>
 6   2  0.3464723E-02  0.3758170E+03  0.7816531E-02  0.1052491E+00
       21   -1    0    0  501  502  0.00000000000E+00  0.00000000000E+00  0.18635088769E+04  0.18635088769E+04  0.00000000000E+00 0. -1.
       21   -1    0    0  505  503  0.00000000000E+00  0.00000000000E+00 -0.21901864428E+03  0.21901864428E+03  0.00000000000E+00 0. -1.
  1000006    1    1    2  501    0  0.41922250351E+01 -0.98174357110E+02  0.58761118580E+03  0.69097227500E+03  0.35000000000E+03 0.  0.
 -1000006    1    1    2    0  503  0.67817008208E+02  0.18224259475E+03  0.14189156339E+03  0.42478785965E+03  0.35000000000E+03 0.  0.
       21    1    1    2  504  502 -0.82318307929E+02 -0.15074699986E+02  0.88805490841E+03  0.89198938937E+03  0.00000000000E+00 0. -1.
       21    1    1    2  505  504  0.10309074687E+02 -0.68993537652E+02  0.26932574976E+02  0.74777997122E+02  0.00000000000E+00 0.  1.
<scales pt_clust_1="13000.00000" pt_clust_2="13000.00000" pt_clust_3="83.71324" pt_clust_4="69.75948"></scales>
<clustering>
<clus scale="   69.759">  2  6  1 -1</clus>
<clus scale="   83.713">  1  5  2 -1</clus>
<clus scale="  375.817">  2  4  1 -1</clus>
<clus scale="  375.817">  1  3  2 -1</clus>
</clustering>
</event>
<event>
 6   2  0.3464723E-02  0.3574788E+03  0.7816531E-02  0.1059587E+00
       21   -1    0    0  505  502  0.00000000000E+00  0.00000000000E+00  0.55259269813E+03  0.55259269813E+03  0.00000000000E+00 0.  1.
       21   -1    0    0  501  503  0.00000000000E+00  0.00000000000E+00 -0.70844179940E+03  0.70844179940E+03  0.00000000000E+00 0.  1.
  1000006    1    1    2  501    0  0.43874701794E+02 -0.10979075109E+03 -0.35449524096E+03  0.51200183041E+03  0.35000000000E+03 0.  0.
 -1000006    1    1    2    0  504 -0.48127615581E+02 -0.28398751646E+02 -0.12202052282E+03  0.37484898888E+03  0.35000000000E+03 0.  0.
       21    1    1    2  504  502 -0.16934919887E+02  0.64968462188E+02  0.27970450694E+03  0.28764961984E+03  0.00000000000E+00 0.  1.
       21    1    1    2  505  503  0.21187833674E+02  0.73221040543E+02  0.40962155572E+02  0.86534058399E+02  0.00000000000E+00 0.  1.
<scales pt_clust_1="13000.00000" pt_clust_2="13000.00000" pt_clust_3="67.13935" pt_clust_4="90.27081"></scales>
<clustering>
<clus scale="   67.139">  1  5  2 -1</clus>
<clus scale="   90.271">  1  6  2 -1</clus>
<clus scale="  357.479">  2  3  1 -1</clus>
<clus scale="  357.479">  1  3  2 -1</clus>
</clustering>
</event>
<event>
 6   2  0.3464723E-02  0.7144878E+03  0.7816531E-02  0.9692772E-01
       21   -1    0    0  503  502  0.00000000000E+00  0.00000000000E+00  0.11693251311E+04  0.11693251311E+04  0.00000000000E+00 0. -1.
       21   -1    0    0  505  503  0.00000000000E+00  0.00000000000E+00 -0.14455503995E+04  0.14455503995E+04  0.00000000000E+00 0.  1.
  1000006    1    1    2  501    0  0.41928923734E+03 -0.47940844623E+03 -0.15174225371E+03  0.74240260939E+03  0.35000000000E+03 0.  0.
 -1000006    1    1    2    0  502 -0.51788755107E+03  0.34734573214E+03  0.65719745485E+03  0.97121834201E+03  0.35000000000E+03 0.  0.
       21    1    1    2  504  501  0.68623923042E+02  0.16913408918E+03 -0.82250400889E+02  0.20020167678E+03  0.00000000000E+00 0. -1.
       21    1    1    2  505  504  0.29974390693E+02 -0.37071375094E+02 -0.69943006869E+03  0.70105290238E+03  0.00000000000E+00 0.  1.
<scales pt_clust_1="13000.00000" pt_clust_2="13000.00000" pt_clust_3="178.32707" pt_clust_4="47.67338"></scales>
<clustering>
<clus scale="   47.673">  2  6  1 -1</clus>
<clus scale="  178.327">  2  5  1 -1</clus>
<clus scale="  714.488">  1  4  2 -1</clus>
<clus scale="  714.488">  1  3  2 -1</clus>
</clustering>
</event>
<event>
 5   1  0.3464723E-02  0.5673292E+03  0.7816531E-02  0.9975606E-01
       21   -1    0    0  503  502  0.00000000000E+00  0.00000000000E+00  0.91976322936E+03  0.91976322936E+03  0.00000000000E+00 0.  1.
       21   -1    0    0  501  503  0.00000000000E+00  0.00000000000E+00 -0.58093737159E+03  0.58093737159E+03  0.00000000000E+00 0. -1.
  1000006    1    1    2  501    0  0.26085325229E+03  0.36880323713E+03 -0.26633282894E+03  0.63047079450E+03  0.35000000000E+03 0.  0.
 -1000006    1    1    2    0  504 -0.27576937359E+03 -0.33057827058E+03  0.46414628430E+03  0.72336886415E+03  0.35000000000E+03 0.  0.
       21    1    1    2  504  502  0.14916121301E+02 -0.38224966550E+02  0.14101240240E+03  0.14686094230E+03  0.00000000000E+00 0. -1.
<scales pt_clust_1="13000.00000" pt_clust_2="13000.00000" pt_clust_3="41.03217"></scales>
<clustering>
<clus scale="   41.032">  1  5  2 -1</clus>
<clus scale="  567.329">  1  4  2 -1</clus>
<clus scale="  567.329">  1  3  2 -1</clus>
</clustering>
</event>
<event>
 5   1  0.3464723E-02  0.4530319E+03  0.7816531E-02  0.1026822E+00
       21   -1    0    0  504  502  0.00000000000E+00  0.00000000000E+00  0.18258643348E+04  0.18258643348E+04  0.00000000000E+00 0. -1.
       21   -1    0    0  501  503  0.00000000000E+00  0.00000000000E+00 -0.16335028718E+03  0.16335028718E+03  0.00000000000E+00 0. -1.
  1000006    1    1    2  501    0 -0.22350945621E+03  0.17597419948E+03  0.58666223432E+03  0.73999727910E+03  0.35000000000E+03 0.  0.
 -1000006    1    1    2    0  502  0.30563397369E+03 -0.39517284883E+02  0.88746111176E+03  0.10025272897E+04  0.35000000000E+03 0.  0.
       21    1    1    2  504  503 -0.82124517483E+02 -0.13645691460E+03  0.18839070151E+03  0.24669005316E+03  0.00000000000E+00 0. -1.
<scales pt_clust_1="13000.00000" pt_clust_2="13000.00000" pt_clust_3="159.26370"></scales>
<clustering>
<clus scale="  159.264">  2  5  1 -1</clus>
<clus scale="  453.032">  1  4  2 -1</clus>
<clus scale="  453.032">  1  3  2 -1</clus>
</clustering>
</event>
<event>
 6   2  0.3464723E-02  0.6543064E+03  0.7816531E-02  0.9798732E-01
       21   -1    0    0  501  503  0.00000000000E+00  0.00000000000E+00  0.41277619974E+03  0.41277619974E+03  0.00000000000E+00 0.  1.
        3   -1    0    0  504    0  0.00000000000E+00  0.00000000000E+00 -0.24531066213E+04  0.24531066213E+04  0.00000000000E+00 0. -1.
  1000006    1    1    2  501    0  0.37686973382E+03 -0.39798895381E+03 -0.61833543880E+03  0.89736543197E+03  0.35000000000E+03 0.  0.
 -1000006    1    1    2    0  502 -0.48449280399E+03  0.28920268126E+03 -0.79609014294E+03  0.10366440969E+04  0.35000000000E+03 0.  0.
       21    1    1    2  504  503  0.11064254774E+03  0.78422996738E+02  0.12255688565E+03  0.18278985204E+03  0.00000000000E+00 0. -1.
        3    1    1    2  502    0 -0.30194775753E+01  0.30363275803E+02 -0.74846172549E+03  0.74908344013E+03  0.00000000000E+00 0. -1.
<scales pt_clust_1="13000.00000" pt_clust_2="13000.00000" pt_clust_3="135.88443" pt_clust_4="30.51304"></scales>
<clustering>
<clus scale="   30.513">  2  6  1 -1</clus>
<clus scale="  135.884">  1  5  2 -1</clus>
<clus scale="  654.306">  1  3  2 -1</clus>
<clus scale="  654.306">  1  3  2 -1</clus>
</clustering>
</event>
<event>
 4   0  0.3464723E-02  0.4998000E+03  0.7816531E-02  0.1013831E+00
       21   -1    0    0  503  502  0.00000000000E+00  0.00000000000E+00  0.11332416576E+04  0.11332416576E+04  0.00000000000E+00 0. -1.
       21   -1    0    0  501  503  0.00000000000E+00  0.00000000000E+00 -0.42233430061E+03  0.42233430061E+03  0.00000000000E+00 0.  1.
  1000006    1    1    2  501    0  0.35516443114E+03 -0.34033280806E+02 -0.18232828678E+03  0.53201845974E+03  0.35000000000E+03 0.  0.
 -1000006    1    1    2    0  502 -0.35516443114E+03  0.34033280806E+02  0.89323564378E+03  0.10235574985E+04  0.35000000000E+03 0.  0.
<scales pt_clust_1="13000.00000" pt_clust_2="13000.00000"></scales>
<clustering>
<clus scale="  499.800">  2  3  1 -1</clus>
<clus scale="  499.800">  1  3  2 -1</clus>
</clustering>
</event>
<event>
 5   1  0.3464723E-02  0.4023112E+03  0.7816531E-02  0.1042982E+00
       -1   -1    0    0    0  501  0.00000000000E+00  0.00000000000E+00  0.10196321736E+04  0.10196321736E+04  0.00000000000E+00 0.  1.
       21   -1    0    0  501  503  0.00000000000E+00  0.00000000000E+00 -0.27110632022E+03  0.27110632022E+03  0.00000000000E+00 0.  1.
  1000006    1    1    2  502    0 -0.85566392259E+02  0.28244610230E+03  0.21776630127E+03  0.50697097566E+03  0.35000000000E+03 0.  0.
 -1000006    1    1    2    0  503  0.30026042489E+02 -0.10368070071E+03  0.23977550334E+03  0.43777110792E+03  0.35000000000E+03 0.  0.
       -1    1    1    2    0  502  0.55540349770E+02 -0.17876540159E+03  0.29098404873E+03  0.34599641020E+03  0.00000000000E+00 0.  1.
<scales pt_clust_1="13000.00000" pt_clust_2="13000.00000" pt_clust_3="187.19455"></scales>
<clustering>
<clus scale="  187.195">  1  5  2 -1</clus>
<clus scale="  402.311">  2  4  1 -1</clus>
<clus scale="  402.311">  2  3  1 -1</clus>
</clustering>
</event>
<event>
 5   1  0.3464723E-02  0.4097311E+03  0.7816531E-02  0.1040461E+00
       21   -1    0    0  501  502  0.00000000000E+00  0.00000000000E+00  0.34294272514E+03  0.34294272514E+03  0.00000000000E+00 0.  1.
       21   -1    0    0  504  503  0.00000000000E+00  0.00000000000E+00 -0.66268628981E+03  0.66268628981E+03  0.00000000000E+00 0.  1.
  1000006    1    1    2  501    0 -0.18525141921E+03 -0.13279801048E+03 -0.14299240655E+02  0.41792088748E+03  0.35000000000E+03 0.  0.
 -1000006    1    1    2    0  503  0.18790663631E+03  0.87395996877E+02 -0.34036147334E+03  0.53037052781E+03  0.35000000000E+03 0.  0.
       21    1    1    2  504  502 -0.26552171003E+01  0.45402013606E+02  0.34917149327E+02  0.57337599657E+02  0.00000000000E+00 0.  1.
<scales pt_clust_1="13000.00000" pt_clust_2="13000.00000" pt_clust_3="45.47959"></scales>
<clustering>
<clus scale="   45.480">  1  5  2 -1</clus>
<clus scale="  409.731">  2  4  1 -1</clus>
<clus scale="  409.731">  1  3  2 -1</clus>
</clustering>
</event>
<event>
 5   1  0.3464723E-02  0.4463251E+03  0.7816531E-02  0.1028824E+00
        2   -1    0    0  503    0  0.00000000000E+00  0.00000000000E+00  0.24611219981E+04  0.24611219981E+04  0.00000000000E+00 0. -1.
       21   -1    0    0  501  503  0.00000000000E+00  0.00000000000E+00 -0.24302964620E+03  0.24302964620E+03  0.00000000000E+00 0. -1.
  1000006    1    1    2  501    0 -0.71018618537E+02  0.27252622484E+03  0.92423104930E+02  0.45864607022E+03  0.35000000000E+03 0.  0.
 -1000006    1    1    2    0  502  0.21909984921E+03 -0.20134649314E+03  0.91615424002E+03  0.10248823082E+04  0.35000000000E+03 0.  0.
        2    1    1    2  502    0 -0.14808123068E+03 -0.71179731698E+02  0.12095150070E+04  0.12206232659E+04  0.00000000000E+00 0. -1.
<scales pt_clust_1="13000.00000" pt_clust_2="13000.00000" pt_clust_3="164.30035"></scales>
<clustering>
<clus scale="  164.300">  1  5  2 -1</clus>
<clus scale="  446.325">  2  3  1 -1</clus>
<clus scale="  446.325">  2  3  1 -1</clus>
</clustering>
</event>
<event>
 4   0  0.3464723E-02  0.5918297E+03  0.7816531E-02  0.9922503E-01
       21   -1    0    0  501  502  0.00000000000E+00  0.00000000000E+00  0.10894912941E+04  0.10894912941E+04  0.00000000000E+00 0.  1.
       21   -1    0    0  502  503  0.00000000000E+00  0.00000000000E+00 -0.49694037104E+03  0.49694037104E+03  0.00000000000E+00 0.  1.
  1000006    1    1    2  501    0  0.12982285401E+03 -0.45924769930E+03  0.76759371449E+03  0.96925875454E+03  0.35000000000E+03 0.  0.
 -1000006    1    1    2    0  503 -0.12982285401E+03  0.45924769930E+03 -0.17504279143E+03  0.61717291059E+03  0.35000000000E+03 0.  0.
<scales pt_clust_1="13000.00000" pt_clust_2="13000.00000"></scales>
<clustering>
<clus scale="  591.830">  1  3  2 -1</clus>
<clus scale="  591.830">  1  3  2 -1</clus>
</clustering>
</event>
<event>
 4   0  0.3464723E-02  0.3846080E+03  0.7816531E-02  0.1049244E+00
       21   -1    0    0  503  502  0.00000000000E+00  0.00000000000E+00  0.10074432263E+03  0.10074432263E+03  0.00000000000E+00 0.  1.
       21   -1    0    0  501  503  0.00000000000E+00  0.00000000000E+00 -0.16311629258E+04  0.16311629258E+04  0.00000000000E+00 0.  1.
  1000006    1    1    2  501    0  0.12085277309E+03 -0.10400922528E+03 -0.10388315983E+04  0.11077429311E+04  0.35000000000E+03 0.  0.
 -1000006    1    1    2    0  502 -0.12085277309E+03  0.10400922528E+03 -0.49158700486E+03  0.62416431735E+03  0.35000000000E+03 0.  0.
<scales pt_clust_1="13000.00000" pt_clust_2="13000.00000"></scales>
<clustering>
<clus scale="  384.608">  2  3  1 -1</clus>
<clus scale="  384.608">  1  3  2 -1</clus>
</clustering>
</event>
<event>
 6   2  0.3464723E-02  0.3631003E+03  0.7816531E-02  0.1057363E+00
       21   -1    0    0  505  502  0.00000000000E+00  0.00000000000E+00  0.51770854749E+03  0.51770854749E+03  0.00000000000E+00 0. -1.
       21   -1    0    0  504  503  0.00000000000E+00  0.00000000000E+00 -0.47474592301E+03  0.47474592301E+03  0.00000000000E+00 0. -1.
  1000006    1    1    2  501    0  0.95283976462E+02  0.57940081004E+02  0.18904264609E+03  0.41312614441E+03  0.35000000000E+03 0.  0.
 -1000006    1    1    2    0  503 -0.66859508646E+02 -0.63974514200E+02 -0.24720216498E+03  0.43837408995E+03  0.35000000000E+03 0.  0.
       21    1    1    2  504  502 -0.57013227405E+02 -0.44559775536E+01  0.32259222265E+02  0.65658367755E+02  0.00000000000E+00 0. -1.
       21    1    1    2  505  501  0.28588759590E+02  0.10490410750E+02  0.68862921111E+02  0.75295868390E+02  0.00000000000E+00 0. -1.
<scales pt_clust_1="13000.00000" pt_clust_2="13000.00000" pt_clust_3="53.97353" pt_clust_4="30.45268"></scales>
<clustering>
<clus scale="   30.453">  1  6  2 -1</clus>
<clus scale="   53.974">  1  5  2 -1</clus>
<clus scale="  363.100">  1  3  2 -1</clus>
<clus scale="  363.100">  1  3  2 -1</clus>
</clustering>
</event>
<event>
 4   0  0.3464723E-02  0.5702938E+03  0.7816531E-02  0.9969029E-01
       21   -1    0    0  501  502  0.00000000000E+00  0.00000000000E+00  0.51471090972E+03  0.51471090972E+03  0.00000000000E+00 0. -1.
       21   -1    0    0  502  503  0.00000000000E+00  0.00000000000E+00 -0.80321885256E+03  0.80321885256E+03  0.00000000000E+00 0.  1.
  1000006    1    1    2  501    0  0.53841142891E+02  0.44703042038E+03  0.16009679053E+03  0.59233947003E+03  0.35000000000E+03 0.  0.
 -1000006    1    1    2    0  503 -0.53841142891E+02 -0.44703042038E+03 -0.44860473338E+03  0.72559029226E+03  0.35000000000E+03 0.  0.
<scales pt_clust_1="13000.00000" pt_clust_2="13000.00000"></scales>
<clustering>
<clus scale="  570.294">  1  3  2 -1</clus>
<clus scale="  570.294">  1  3  2 -1</clus>
</clustering>
</event>
<event>
 4   0  0.3464723E-02  0.5788878E+03  0.7816531E-02  0.9950202E-01
       21   -1    0    0  503  502  0.00000000000E+00  0.00000000000E+00  0.34837378825E+03  0.34837378825E+03  0.00000000000E+00 0. -1.
       21   -1    0    0  501  503  0.00000000000E+00  0.00000000000E+00 -0.10091245621E+04  0.10091245621E+04  0.00000000000E+00 0.  1.
  1000006    1    1    2  501    0 -0.40868561997E+03  0.21351154744E+03 -0.47716116533E+03  0.75019590412E+03  0.35000000000E+03 0.  0.
 -1000006    1    1    2    0  502  0.40868561997E+03 -0.21351154744E+03 -0.18358960855E+03  0.60730244626E+03  0.35000000000E+03 0.  0.
<scales pt_clust_1="13000.00000" pt_clust_2="13000.00000"></scales>
<clustering>
<clus scale="  578.888">  2  3  1 -1</clus>
<clus scale="  578.888">  1  3  2 -1</clus>
</clustering>
</event>
<event>
 6   2  0.3464723E-02  0.4337810E+03  0.7816531E-02  0.1032672E+00
       21   -1    0    0  504  502  0.00000000000E+00  0.00000000000E+00  0.46576264018E+03  0.46576264018E+03  0.00000000000E+00 0.  1.
       21   -1    0    0  505  503  0.00000000000E+00  0.00000000000E+00 -0.19674479287E+04  0.19674479287E+04  0.00000000000E+00 0.  1.
  1000006    1    1    2  501    0 -0.27356381571E+03  0.14595626426E+03 -0.40990774127E+03  0.62182372800E+03  0.35000000000E+03 0.  0.
 -1000006    1    1    2    0  503  0.21503744048E+03 -0.10738328248E+03 -0.14064114573E+04  0.14691036238E+04  0.35000000000E+03 0.  0.
       21    1    1    2  504  501  0.20390581168E+02  0.24954653641E+02  0.21872673300E+03  0.22108797857E+03  0.00000000000E+00 0.  1.
       21    1    1    2  505  502  0.38135794062E+02 -0.63527635422E+02  0.95907177015E+02  0.12119523858E+03  0.00000000000E+00 0.  1.
<scales pt_clust_1="13000.00000" pt_clust_2="13000.00000" pt_clust_3="32.22593" pt_clust_4="70.56424"></scales>
<clustering>
<clus scale="   32.226">  1  5  2 -1</clus>
<clus scale="   70.564">  1  6  2 -1</clus>
<clus scale="  433.781">  1  3  2 -1</clus>
<clus scale="  433.781">  1  3  2 -1</clus>
</clustering>
</event>
<event>
 5   1  0.3464723E-02  0.5188002E+03  0.7816531E-02  0.1008985E+00
       21   -1    0    0  504  502  0.00000000000E+00  0.00000000000E+00  0.23195987556E+04  0.23195987556E+04  0.00000000000E+00 0.  1.
       21   -1    0    0  501  503  0.00000000000E+00  0.00000000000E+00 -0.13436060962E+03  0.13436060962E+03  0.00000000000E+00 0.  1.
  1000006    1    1    2  501    0 -0.74296832231E+02  0.39158809579E+03  0.90269519863E+03  0.10470051947E+04  0.35000000000E+03 0.  0.
 -1000006    1    1    2    0  502  0.35762483952E+02 -0.37105844198E+03  0.12554041734E+04  0.13555452634E+04  0.35000000000E+03 0.  0.
       21    1    1    2  504  503  0.38534348279E+02 -0.20529653802E+02  0.27138774023E+02  0.51408907185E+02  0.00000000000E+00 0.  1.
<scales pt_clust_1="13000.00000" pt_clust_2="13000.00000" pt_clust_3="43.66191"></scales>
<clustering>
<clus scale="   43.662">  2  5  1 -1</clus>
<clus scale="  518.800">  2  3  1 -1</clus>
<clus scale="  518.800">  1  3  2 -1</clus>
</clustering>
</event>
<event>
 6   2  0.3464723E-02  0.3675655E+03  0.7816531E-02  0.1055628E+00
       21   -1    0    0  504  502  0.00000000000E+00  0.00000000000E+00  0.25006395673E+03  0.25006395673E+03  0.00000000000E+00 0.  1.
       21   -1    0    0  501  503  0.00000000000E+00  0.00000000000E+00 -0.11814768778E+04  0.11814768778E+04  0.00000000000E+00 0.  1.
  1000006    1    1    2  501    0 -0.24488183976E+03  0.24175297606E+02 -0.57016686073E+03  0.71284066209E+03  0.35000000000E+03 0.  0.
 -1000006    1    1    2    0  502  0.49938630878E+02  0.51716640327E+02 -0.13085158523E+03  0.38051362012E+03  0.35000000000E+03 0.  0.
       21    1    1    2  504  505  0.11992940360E+02 -0.27583814201E+02  0.10503526929E+02  0.31859402102E+02  0.00000000000E+00 0. -1.
       21    1    1    2  505  503  0.18295026852E+03 -0.48308123732E+02 -0.24089800203E+03  0.30632715021E+03  0.00000000000E+00 0.  1.
<scales pt_clust_1="13000.00000" pt_clust_2="13000.00000" pt_clust_3="30.07819" pt_clust_4="191.91429"></scales>
<clustering>
<clus scale="   30.078">  1  5  2 -1</clus>
<clus scale="  191.914">  2  6  1 -1</clus>
<clus scale="  367.566">  2  3  1 -1</clus>
<clus scale="  367.566">  1  3  2 -1</clus>
</clustering>
</event>
<event>
 4   0  0.3464723E-02  0.3704108E+03  0.7816531E-02  0.1054536E+00
       21   -1    0    0  503  502  0.00000000000E+00  0.00000000000E+00  0.14317817959E+04  0.14317817959E+04  0.00000000000E+00 0. -1.
       21   -1    0    0  501  503  0.00000000000E+00  0.00000000000E+00 -0.13594507329E+03  0.13594507329E+03  0.00000000000E+00 0. -1.
  1000006    1    1    2  501    0  0.11240082345E+03 -0.45499264047E+02  0.22209863423E+03  0.43189342605E+03  0.35000000000E+03 0.  0.
 -1000006    1    1    2    0  502 -0.11240082345E+03  0.45499264047E+02  0.10737380884E+04  0.11358334432E+04  0.35000000000E+03 0.  0.
<scales pt_clust_1="13000.00000" pt_clust_2="13000.00000"></scales>
<clustering>
<clus scale="  370.411">  2  3  1 -1</clus>
<clus scale="  370.411">  1  3  2 -1</clus>
</clustering>
</event>
<event>
 5   1  0.3464723E-02  0.3701903E+03  0.7816531E-02  0.1054620E+00
       21   -1    0    0  501  502  0.00000000000E+00  0.00000000000E+00  0.12107144988E+04  0.12107144988E+04  0.00000000000E+00 0. -1.
       21   -1    0    0  504  503  0.00000000000E+00  0.00000000000E+00 -0.17817093121E+03  0.17817093121E+03  0.00000000000E+00 0. -1.
  1000006    1    1    2  501    0  0.13336216844E+03 -0.26934030705E+02  0.83031802316E+03  0.91128421997E+03  0.35000000000E+03 0.  0.
 -1000006    1    1    2    0  503 -0.80987206785E+02  0.13144011983E+02  0.21895145954E+03  0.42091737235E+03  0.35000000000E+03 0.  0.
       21    1    1    2  504  502 -0.52374961659E+02  0.13790018722E+02 -0.16725915071E+02  0.56683837733E+02  0.00000000000E+00 0. -1.
<scales pt_clust_1="13000.00000" pt_clust_2="13000.00000" pt_clust_3="54.15996"></scales>
<clustering>
<clus scale="   54.160">  2  5  1 -1</clus>
<clus scale="  370.190">  2  4  1 -1</clus>
<clus scale="  370.190">  1  3  2 -1</clus>
</clustering>
</event>
<event>
 4   0  0.3464723E-02  0.3723483E+03  0.7816531E-02  0.1053799E+00
       21   -1    0    0  501  502  0.00000000000E+00  0.00000000000E+00  0.42590520429E+03  0.42590520429E+03  0.00000000000E+00 0. -1.
       21   -1    0    0  502  503  0.00000000000E+00  0.00000000000E+00 -0.36477626323E+03  0.36477626323E+03  0.00000000000E+00 0. -1.
  1000006    1    1    2  501    0 -0.83790072352E+02 -0.95511742036E+02  0.16024623053E+03  0.40536665316E+03  0.35000000000E+03 0.  0.
 -1000006    1    1    2    0  503  0.83790072352E+02  0.95511742036E+02 -0.99117289470E+02  0.38531481436E+03  0.35000000000E+03 0.  0.
<scales pt_clust_1="13000.00000" pt_clust_2="13000.00000"></scales>
<clustering>
<clus scale="  372.348">  1  3  2 -1</clus>
<clus scale="  372.348">  1  3  2 -1</clus>
</clustering>
</event>
<event>
 5   1  0.3464723E-02  0.4110928E+03  0.7816531E-02  0.1040005E+00
       21   -1    0    0  501  502  0.00000000000E+00  0.00000000000E+00  0.97308473943E+02  0.97308473943E+02  0.00000000000E+00 0. -1.
       21   -1    0    0  504  503  0.00000000000E+00  0.00000000000E+00 -0.20815087406E+04  0.20815087406E+04  0.00000000000E+00 0. -1.
  1000006    1    1    2  501    0 -0.11282811450E+03  0.15924184694E+03 -0.82838155826E+03  0.92021962340E+03  0.35000000000E+03 0.  0.
 -1000006    1    1    2    0  503  0.10602129959E+03 -0.20820043613E+03 -0.11230215924E+04  0.11992770466E+04  0.35000000000E+03 0.  0.
       21    1    1    2  504  502  0.68068149072E+01  0.48958589184E+02 -0.32797116024E+02  0.59320544532E+02  0.00000000000E+00 0. -1.
<scales pt_clust_1="13000.00000" pt_clust_2="13000.00000" pt_clust_3="49.42951"></scales>
<clustering>
<clus scale="   49.430">  1  5  2 -1</clus>
<clus scale="  411.093">  1  3  2 -1</clus>
<clus scale="  411.093">  1  3  2 -1</clus>
</clustering>
</event>
<event>
 5   1  0.3464723E-02  0.5094428E+03  0.7816531E-02  0.1011343E+00
       21   -1    0    0  501  502  0.00000000000E+00  0.00000000000E+00  0.11332695534E+04  0.11332695534E+04  0.00000000000E+00 0. -1.
       21   -1    0    0  504  503  0.00000000000E+00  0.00000000000E+00 -0.33585101927E+03  0.33585101927E+03  0.00000000000E+00 0.  1.
  1000006    1    1    2  501    0 -0.30232665076E+03 -0.20547101242E+03  0.65721550464E+03  0.82948897536E+03  0.35000000000E+03 0.  0.
 -1000006    1    1    2    0  503  0.28356913189E+03  0.25608006388E+03  0.20328685305E+03  0.55660937496E+03  0.35000000000E+03 0.  0.
       21    1    1    2  504  502  0.18757518873E+02 -0.50609051459E+02 -0.63083823572E+02  0.83022222328E+02  0.00000000000E+00 0. -1.
<scales pt_clust_1="13000.00000" pt_clust_2="13000.00000" pt_clust_3="53.97333"></scales>
<clustering>
<clus scale="   53.973">  2  5  1 -1</clus>
<clus scale="  509.443">  1  3  2 -1</clus>
<clus scale="  509.443">  1  3  2 -1</clus>
</clustering>
</event>
<event>
 4   0  0.3464723E-02  0.6452454E+03  0.7816531E-02  0.9815742E-01
       21   -1    0    0  503  502  0.00000000000E+00  0.00000000000E+00  0.43591309621E+03  0.43591309621E+03  0.00000000000E+00 0.  1.
       21   -1    0    0  501  503  0.00000000000E+00  0.00000000000E+00 -0.13492897356E+04  0.13492897356E+04  0.00000000000E+00 0. -1.
  1000006    1    1    2  501    0 -0.23324627607E+03 -0.48932386596E+03 -0.93914271015E+03  0.11394431540E+04  0.35000000000E+03 0.  0.
 -1000006    1    1    2    0  502  0.23324627607E+03  0.48932386596E+03  0.25766070781E+02  0.64575967783E+03  0.35000000000E+03 0.  0.
<scales pt_clust_1="13000.00000" pt_clust_2="13000.00000"></scales>
<clustering>
<clus scale="  645.245">  2  3  1 -1</clus>
<clus scale="  645.245">  1  3  2 -1</clus>
</clustering>
</event>
<event>
 5   1  0.3464723E-02  0.3687173E+03  0.7816531E-02  0.1055184E+00
       21   -1    0    0  501  502  0.00000000000E+00  0.00000000000E+00  0.45644717885E+03  0.45644717885E+03  0.00000000000E+00 0.  1.
       21   -1    0    0  502  503  0.00000000000E+00  0.00000000000E+00 -0.29004609703E+04  0.29004609703E+04  0.00000000000E+00 0. -1.
  1000006    1    1    2  501    0  0.89593780761E+02 -0.69027941701E+02  0.12473497622E+03  0.38839505221E+03  0.35000000000E+03 0.  0.
 -1000006    1    1    2    0  504 -0.12584977591E+02  0.14469721855E+03  0.18138326481E+02  0.37937404445E+03  0.35000000000E+03 0.  0.
       21    1    1    2  504  503 -0.77008803169E+02 -0.75669276847E+02 -0.25868870941E+04  0.25891390525E+04  0.00000000000E+00 0. -1.
<scales pt_clust_1="13000.00000" pt_clust_2="13000.00000" pt_clust_3="107.96386"></scales>
<clustering>
<clus scale="  107.964">  2  5  1 -1</clus>
<clus scale="  368.717">  2  4  1 -1</clus>
<clus scale="  368.717">  1  3  2 -1</clus>
</clustering>
</event>
<event>
 5   1  0.3464723E-02  0.5712043E+03  0.7816531E-02  0.9967017E-01
       21   -1    0    0  502  503  0.00000000000E+00  0.00000000000E+00  0.31090982334E+03  0.31090982334E+03  0.00000000000E+00 0. -1.
        1   -1    0    0  501    0  0.00000000000E+00  0.00000000000E+00 -0.26675863194E+04  0.26675863194E+04  0.00000000000E+00 0. -1.
  1000006    1    1    2  501    0  0.19850169190E+03 -0.52357529248E+03 -0.10611261650E+04  0.12498090841E+04  0.35000000000E+03 0.  0.
 -1000006    1    1    2    0  503 -0.40393763297E+03  0.17804776552E+03 -0.11845009965E+04  0.13116437126E+04  0.35000000000E+03 0.  0.
        1    1    1    2  502    0  0.20543594107E+03  0.34552752696E+03 -0.11104933455E+03  0.41704334603E+03  0.00000000000E+00 0. -1.
<scales pt_clust_1="13000.00000" pt_clust_2="13000.00000" pt_clust_3="401.98656"></scales>
<clustering>
<clus scale="  401.987">  1  5  2 -1</clus>
<clus scale="  994.538">  3  4 -1 -1</clus>
<clus scale="  571.204">  1  3  2 -1</clus>
</clustering>
</event>
<event>
 4   0  0.3464723E-02  0.3517340E+03  0.7816531E-02  0.1061906E+00
       21   -1    0    0  503  502  0.00000000000E+00  0.00000000000E+00  0.20655776966E+04  0.20655776966E+04  0.00000000000E+00 0. -1.
       21   -1    0    0  501  503  0.00000000000E+00  0.00000000000E+00 -0.65717412809E+02  0.65717412809E+02  0.00000000000E+00 0. -1.
  1000006    1    1    2  501    0  0.91750732370E+01 -0.33654481581E+02  0.68272342529E+03  0.76800265725E+03  0.35000000000E+03 0.  0.
 -1000006    1    1    2    0  502 -0.91750732370E+01  0.33654481581E+02  0.13171368585E+04  0.13632924522E+04  0.35000000000E+03 0.  0.
<scales pt_clust_1="13000.00000" pt_clust_2="13000.00000"></scales>
<clustering>
<clus scale="  351.734">  2  3  1 -1</clus>
<clus scale="  351.734">  1  3  2 -1</clus>
</clustering>
</event>
<event>
 5   1  0.3464723E-02  0.4098137E+03  0.7816531E-02  0.1040434E+00
       21   -1    0    0  501  502  0.00000000000E+00  0.00000000000E+00  0.62699087994E+03  0.62699087994E+03  0.00000000000E+00 0. -1.
       21   -1    0    0  504  503  0.00000000000E+00  0.00000000000E+00 -0.38676287951E+03  0.38676287951E+03  0.00000000000E+00 0. -1.
  1000006    1    1    2  501    0  0.49313966939E+02 -0.17574204124E+03  0.33754713429E+03  0.51937963019E+03  0.35000000000E+03 0.  0.
 -1000006    1    1    2    0  503 -0.79836110875E+02  0.20954740814E+03 -0.13309139233E+03  0.43645989457E+03  0.35000000000E+03 0.  0.
       21    1    1    2  504  502  0.30522143936E+02 -0.33805366905E+02  0.35772258470E+02  0.57914234676E+02  0.00000000000E+00 0. -1.
<scales pt_clust_1="13000.00000" pt_clust_2="13000.00000" pt_clust_3="45.54563"></scales>
<clustering>
<clus scale="   45.546">  1  5  2 -1</clus>
<clus scale="  409.814">  1  3  2 -1</clus>
<clus scale="  409.814">  1  3  2 -1</clus>
</clustering>
</event>
<event>
 5   1  0.3464723E-02  0.7140316E+03  0.7816531E-02  0.9693533E-01
       21   -1    0    0  501  502  0.00000000000E+00  0.00000000000E+00  0.17731979879E+04  0.17731979879E+04  0.00000000000E+00 0. -1.
       21   -1    0    0  504  503  0.00000000000E+00  0.00000000000E+00 -0.77854109347E+03  0.77854109347E+03  0.00000000000E+00 0.  1.
  1000006    1    1    2  501    0 -0.58106109567E+03 -0.20455181945E+03  0.14078202172E+04  0.15760492403E+04  0.35000000000E+03 0.  0.
 -1000006    1    1    2    0  503  0.60713891755E+03  0.26465894507E+03 -0.23381685013E+03  0.78474985939E+03  0.35000000000E+03 0.  0.
       21    1    1    2  504  502 -0.26077821880E+02 -0.60107125617E+02 -0.17934647269E+03  0.19093998169E+03  0.00000000000E+00 0. -1.
<scales pt_clust_1="13000.00000" pt_clust_2="13000.00000" pt_clust_3="65.52037"></scales>
<clustering>
<clus scale="   65.520">  2  5  1 -1</clus>
<clus scale="  714.032">  2  4  1 -1</clus>
<clus scale="  714.032">  1  3  2 -1</clus>
</clustering>
</event>
<event>
 6   2  0.3464723E-02  0.3859333E+03  0.7816531E-02  0.1048762E+00
        1   -1    0    0  503    0  0.00000000000E+00  0.00000000000E+00  0.27676781722E+04  0.27676781722E+04  0.00000000000E+00 0.  1.
       21   -1    0    0  504  503  0.00000000000E+00  0.00000000000E+00 -0.10760215257E+03  0.10760215257E+03  0.00000000000E+00 0.  1.
  1000006    1    1    2  501    0  0.14402564644E+03 -0.22175831137E+02  0.46255108730E+03  0.59807078400E+03  0.35000000000E+03 0.  0.
 -1000006    1    1    2    0  502 -0.16379769908E+03 -0.90557896300E+02  0.14785070636E+04  0.15308538650E+04  0.35000000000E+03 0.  0.
       21    1    1    2  504  501  0.28917353930E+02  0.14491749675E+02  0.15347901954E+02  0.35801986836E+02  0.00000000000E+00 0.  1.
        1    1    1    2  502    0 -0.91453012883E+01  0.98241977762E+02  0.70366996676E+03  0.71055368893E+03  0.00000000000E+00 0.  1.
<scales pt_clust_1="13000.00000" pt_clust_2="13000.00000" pt_clust_3="32.34539" pt_clust_4="99.08774"></scales>
<clustering>
<clus scale="   32.345">  2  5  1 -1</clus>
<clus scale="   99.088">  1  6  2 -1</clus>
<clus scale="  385.933">  2  3  1 -1</clus>
<clus scale="  385.933">  2  3  1 -1</clus>
</clustering>
</event>
<event>
 5   1  0.3464723E-02  0.4963612E+03  0.7816531E-02  0.1014733E+00
       21   -1    0    0  502  503  0.00000000000E+00  0.00000000000E+00  0.79380288082E+03  0.79380288082E+03  0.00000000000E+00 0. -1.
        2   -1    0    0  501    0  0.00000000000E+00  0.00000000000E+00 -0.14076143717E+04  0.14076143717E+04  0.00000000000E+00 0. -1.
  1000006    1    1    2  501    0 -0.91359885254E-01  0.38621055119E+03 -0.26164458004E+02  0.52186509469E+03  0.35000000000E+03 0.  0.
 -1000006    1    1    2    0  503 -0.12510646725E+03 -0.32194742872E+03  0.42939138837E+03  0.65282366640E+03  0.35000000000E+03 0.  0.
        2    1    1    2  502    0  0.12519782713E+03 -0.64263122467E+02 -0.10170384213E+04  0.10267284915E+04  0.00000000000E+00 0. -1.
<scales pt_clust_1="13000.00000" pt_clust_2="13000.00000" pt_clust_3="140.72756"></scales>
<clustering>
<clus scale="  140.728">  2  5  1 -1</clus>
<clus scale="  496.361">  2  3  1 -1</clus>
<clus scale="  496.361">  1  3  2 -1</clus>
</clustering>
</event>
<event>
 5   1  0.3464723E-02  0.3574559E+03  0.7816531E-02  0.1059596E+00
       21   -1    0    0  501  502  0.00000000000E+00  0.00000000000E+00  0.29507347256E+03  0.29507347256E+03  0.00000000000E+00 0. -1.
       21   -1    0    0  504  503  0.00000000000E+00  0.00000000000E+00 -0.75226854194E+03  0.75226854194E+03  0.00000000000E+00 0. -1.
  1000006    1    1    2  501    0  0.46556545128E+02 -0.91273990497E+02 -0.34216031632E+01  0.36470558071E+03  0.35000000000E+03 0.  0.
 -1000006    1    1    2    0  503 -0.71722408372E+01  0.26532513269E+02 -0.17218275331E+03  0.39102725715E+03  0.35000000000E+03 0.  0.
       21    1    1    2  504  502 -0.39384304291E+02  0.64741477228E+02 -0.28159071291E+03  0.29160917663E+03  0.00000000000E+00 0. -1.
<scales pt_clust_1="13000.00000" pt_clust_2="13000.00000" pt_clust_3="75.77983"></scales>
<clustering>
<clus scale="   75.780">  2  5  1 -1</clus>
<clus scale="  357.456">  2  4  1 -1</clus>
<clus scale="  357.456">  1  3  2 -1</clus>
</clustering>
</event>
<event>
 5   1  0.3464723E-02  0.5165225E+03  0.7816531E-02  0.1009554E+00
       21   -1    0    0  502  503  0.00000000000E+00  0.00000000000E+00  0.49493580870E+03  0.49493580870E+03  0.00000000000E+00 0. -1.
        2   -1    0    0  501    0  0.00000000000E+00  0.00000000000E+00 -0.64669142014E+03  0.64669142014E+03  0.00000000000E+00 0.  1.
  1000006    1    1    2  501    0  0.24268934757E+03 -0.29499102294E+03 -0.18927568560E+03  0.55158236756E+03  0.35000000000E+03 0.  0.
 -1000006    1    1    2    0  503 -0.26385355690E+03  0.27037381567E+03 -0.29223893077E+02  0.51582432631E+03  0.35000000000E+03 0.  0.
        2    1    1    2  502    0  0.21164209331E+02  0.24617207276E+02  0.66743967232E+02  0.74220534979E+02  0.00000000000E+00 0.  1.
<scales pt_clust_1="13000.00000" pt_clust_2="13000.00000" pt_clust_3="32.46430"></scales>
<clustering>
<clus scale="   32.464">  1  5  2 -1</clus>
<clus scale="  850.330">  3  4 -1 -1</clus>
<clus scale="  516.522">  1  3  2 -1</clus>
</clustering>
</event>
<event>
 5   1  0.3464723E-02  0.3675877E+03  0.7816531E-02  0.1055619E+00
       21   -1    0    0  501  502  0.00000000000E+00  0.00000000000E+00  0.86906429490E+03  0.86906429490E+03  0.00000000000E+00 0.  1.
       21   -1    0    0  502  503  0.00000000000E+00  0.00000000000E+00 -0.38568796695E+03  0.38568796695E+03  0.00000000000E+00 0.  1.
  1000006    1    1    2  501    0  0.93079340966E+02 -0.22379199487E+02  0.41170805000E+03  0.54878785584E+03  0.35000000000E+03 0.  0.
 -1000006    1    1    2    0  504 -0.13249814907E+03  0.22996151030E+02  0.29630625291E+03  0.47789327050E+03  0.35000000000E+03 0.  0.
       21    1    1    2  504  503  0.39418808107E+02 -0.61695154304E+00 -0.22463797496E+03  0.22807113552E+03  0.00000000000E+00 0.  1.
<scales pt_clust_1="13000.00000" pt_clust_2="13000.00000" pt_clust_3="39.42364"></scales>
<clustering>
<clus scale="   39.424">  2  5  1 -1</clus>
<clus scale="  367.588">  1  3  2 -1</clus>
<clus scale="  367.588">  1  3  2 -1</clus>
</clustering>
</event>
<event>
 6   2  0.3464723E-02  0.3503218E+03  0.7816531E-02  0.1062483E+00
        2   -1    0    0  501    0  0.00000000000E+00  0.00000000000E+00  0.22946329245E+04  0.22946329245E+04  0.00000000000E+00 0. -1.
       -1   -1    0    0    0  501  0.00000000000E+00  0.00000000000E+00 -0.20793829267E+03  0.20793829267E+03  0.00000000000E+00 0. -1.
  1000006    1    1    2  502    0 -0.20801138251E+03 -0.48473093412E+02  0.37884237945E+03  0.55824718943E+03  0.35000000000E+03 0.  0.
 -1000006    1    1    2    0  503 -0.11674500893E+03 -0.11794493499E+02  0.72637212916E+03  0.81479137036E+03  0.35000000000E+03 0.  0.
        2    1    1    2  503    0  0.21991976562E+02  0.27165600852E+02  0.74006469587E+03  0.74088958082E+03  0.00000000000E+00 0. -1.
       -1    1    1    2    0  502  0.30276441488E+03  0.33101986059E+02  0.24141542735E+03  0.38864307656E+03  0.00000000000E+00 0. -1.
<scales pt_clust_1="13000.00000" pt_clust_2="13000.00000" pt_clust_3="34.95164" pt_clust_4="309.63867"></scales>
<clustering>
<clus scale="   34.952">  1  5  2 -1</clus>
<clus scale="  309.639">  2  6  1 -1</clus>
<clus scale="  350.322">  2  3  1 -1</clus>
<clus scale="  350.322">  1  3  2 -1</clus>
</clustering>
</event>
<event>
 5   1  0.3464723E-02  0.3946300E+03  0.7816531E-02  0.1045655E+00
       21   -1    0    0  501  502  0.00000000000E+00  0.00000000000E+00  0.15023988498E+04  0.15023988498E+04  0.00000000000E+00 0. -1.
       21   -1    0    0  502  503  0.00000000000E+00  0.00000000000E+00 -0.21481850647E+03  0.21481850647E+03  0.00000000000E+00 0. -1.
  1000006    1    1    2  501    0  0.15067432468E+03 -0.71525357072E+02  0.68144231050E+03  0.78401674176E+03  0.35000000000E+03 0.  0.
 -1000006    1    1    2    0  504 -0.18131355973E+03  0.80234032413E+02  0.71466463340E+03  0.82009611945E+03  0.35000000000E+03 0.  0.
       21    1    1    2  504  503  0.30639235045E+02 -0.87086753411E+01 -0.10852660062E+03  0.11310449502E+03  0.00000000000E+00 0. -1.
<scales pt_clust_1="13000.00000" pt_clust_2="13000.00000" pt_clust_3="31.85285"></scales>
<clustering>
<clus scale="   31.853">  2  5  1 -1</clus>
<clus scale="  394.630">  1  3  2 -1</clus>
<clus scale="  394.630">  1  3  2 -1</clus>
</clustering>
</event>
<event>
 5   1  0.3464723E-02  0.4890521E+03  0.7816531E-02  0.1016677E+00
       21   -1    0    0  501  502  0.00000000000E+00  0.00000000000E+00  0.29517997632E+03  0.29517997632E+03  0.00000000000E+00 0. -1.
       21   -1    0    0  502  503  0.00000000000E+00  0.00000000000E+00 -0.16242063088E+04  0.16242063088E+04  0.00000000000E+00 0. -1.
  1000006    1    1    2  501    0 -0.12050876800E+03  0.30974636984E+03 -0.20536590195E+03  0.52453820688E+03  0.35000000000E+03 0.  0.
 -1000006    1    1    2    0  504  0.14876964739E+03 -0.32066460009E+03 -0.32190604188E+03  0.59252147095E+03  0.35000000000E+03 0.  0.
       21    1    1    2  504  503 -0.28260879389E+02  0.10918230245E+02 -0.80175438862E+03  0.80232660727E+03  0.00000000000E+00 0. -1.
<scales pt_clust_1="13000.00000" pt_clust_2="13000.00000" pt_clust_3="30.29662"></scales>
<clustering>
<clus scale="   30.297">  2  5  1 -1</clus>
<clus scale="  489.052">  1  3  2 -1</clus>
<clus scale="  489.052">  1  3  2 -1</clus>
</clustering>
</event>
<event>
 5   1  0.3464723E-02  0.4071556E+03  0.7816531E-02  0.1041330E+00
       21   -1    0    0  504  502  0.00000000000E+00  0.00000000000E+00  0.28185953065E+04  0.28185953065E+04  0.00000000000E+00 0. -1.
       21   -1    0    0  501  503  0.00000000000E+00  0.00000000000E+00 -0.91720481770E+02  0.91720481770E+02  0.00000000000E+00 0. -1.
  1000006    1    1    2  501    0  0.18875925283E+03 -0.15331299799E+03  0.78347416017E+03  0.89188939366E+03  0.35000000000E+03 0.  0.
 -1000006    1    1    2    0  502 -0.15103323580E+03  0.12281913576E+03  0.19255165992E+04  0.19667256423E+04  0.35000000000E+03 0.  0.
       21    1    1    2  504  503 -0.37726017024E+02  0.30493862227E+02  0.17884065402E+02  0.51700752309E+02  0.00000000000E+00 0. -1.
<scales pt_clust_1="13000.00000" pt_clust_2="13000.00000" pt_clust_3="48.50905"></scales>
<clustering>
<clus scale="   48.509">  2  5  1 -1</clus>
<clus scale="  407.156">  2  3  1 -1</clus>
<clus scale="  407.156">  1  3  2 -1</clus>
</clustering>
</event>
<event>
 5   1  0.3464723E-02  0.4074435E+03  0.7816531E-02  0.1041232E+00
       21   -1    0    0  501  502  0.00000000000E+00  0.00000000000E+00  0.10641515569E+03  0.10641515569E+03  0.00000000000E+00 0. -1.
       21   -1    0    0  504  503  0.00000000000E+00  0.00000000000E+00 -0.18292487512E+04  0.18292487512E+04  0.00000000000E+00 0. -1.
  1000006    1    1    2  501    0  0.18575252335E+03 -0.21655855907E+01 -0.58665294113E+03  0.70793386911E+03  0.35000000000E+03 0.  0.
 -1000006    1    1    2    0  503 -0.22282199864E+03 -0.68941010523E+01 -0.10977839524E+04  0.11735956620E+04  0.35000000000E+03 0.  0.
       21    1    1    2  504  502  0.37069475285E+02  0.90596866429E+01 -0.38396701987E+02  0.54134375801E+02  0.00000000000E+00 0. -1.
<scales pt_clust_1="13000.00000" pt_clust_2="13000.00000" pt_clust_3="38.16050"></scales>
<clustering>
<clus scale="   38.161">  1  5  2 -1</clus>
<clus scale="  407.444">  2  4  1 -1</clus>
<clus scale="  407.444">  1  3  2 -1</clus>
</clustering>
</event>
<event>
 4   0  0.3464723E-02  0.6448230E+03  0.7816531E-02  0.9816542E-01
       21   -1    0    0  501  502  0.00000000000E+00  0.00000000000E+00  0.87090970847E+03  0.87090970847E+03  0.00000000000E+00 0.  1.
       21   -1    0    0  502  503  0.00000000000E+00  0.00000000000E+00 -0.53442738237E+03  0.53442738237E+03  0.00000000000E+00 0. -1.
  1000006    1    1    2  501    0  0.33266060575E+03  0.42735650135E+03  0.39771931043E+03  0.75761290099E+03  0.35000000000E+03 0.  0.
 -1000006    1    1    2    0  503 -0.33266060575E+03 -0.42735650135E+03 -0.61236984324E+02  0.64772418984E+03  0.35000000000E+03 0.  0.
<scales pt_clust_1="13000.00000" pt_clust_2="13000.00000"></scales>
<clustering>
<clus scale="  644.823">  1  3  2 -1</clus>
<clus scale="  644.823">  1  3  2 -1</clus>
</clustering>
</event>
<event>
 6   2  0.3464723E-02  0.4375389E+03  0.7816531E-02  0.1031505E+00
       21   -1    0    0  505  502  0.00000000000E+00  0.00000000000E+00  0.39041696415E+03  0.39041696415E+03  0.00000000000E+00 0. -1.
       21   -1    0    0  504  503  0.00000000000E+00  0.00000000000E+00 -0.11393225470E+04  0.11393225470E+04  0.00000000000E+00 0. -1.
  1000006    1    1    2  501    0  0.16778740008E+02  0.30917015559E+03 -0.66880774245E+03  0.81588694534E+03  0.35000000000E+03 0.  0.
 -1000006    1    1    2    0  502  0.61312779244E+01 -0.20952332741E+03  0.65580611099E+02  0.41320507481E+03  0.35000000000E+03 0.  0.
       21    1    1    2  504  501 -0.19949520869E+02 -0.42278623734E+02 -0.20957466806E+03  0.21472542211E+03  0.00000000000E+00 0. -1.
       21    1    1    2  505  503 -0.29604970633E+01 -0.57368204449E+02  0.63896216581E+02  0.85922068864E+02  0.00000000000E+00 0. -1.
<scales pt_clust_1="13000.00000" pt_clust_2="13000.00000" pt_clust_3="46.74896" pt_clust_4="57.95865"></scales>
<clustering>
<clus scale="   46.749">  2  5  1 -1</clus>
<clus scale="   57.959">  1  6  2 -1</clus>
<clus scale="  437.539">  2  3  1 -1</clus>
<clus scale="  437.539">  1  3  2 -1</clus>
</clustering>
</event>
<event>
 6   2  0.3464723E-02  0.3568549E+03  0.7816531E-02  0.1059836E+00
       21   -1    0    0  505  502  0.00000000000E+00  0.00000000000E+00  0.61081308262E+03  0.61081308262E+03  0.00000000000E+00 0. -1.
       21   -1    0    0  504  503  0.00000000000E+00  0.00000000000E+00 -0.31180033689E+03  0.31180033689E+03  0.00000000000E+00 0. -1.
  1000006    1    1    2  501    0  0.12833555443E+02  0.36000738398E+02  0.21401166470E+02  0.35273043991E+03  0.35000000000E+03 0.  0.
 -1000006    1    1    2    0  502 -0.43727478855E-01 -0.88812468416E+02  0.24394837525E+03  0.43577341158E+03  0.35000000000E+03 0.  0.
       21    1    1    2  504  501 -0.50030420329E+02 -0.14837750991E+02  0.83761289548E+01  0.52852259640E+02  0.00000000000E+00 0.  1.
       21    1    1    2  505  503  0.37240592365E+02  0.67649481008E+02  0.25287075065E+02  0.81257308384E+02  0.00000000000E+00 0.  1.
<scales pt_clust_1="13000.00000" pt_clust_2="13000.00000" pt_clust_3="52.18431" pt_clust_4="73.71970"></scales>
<clustering>
<clus scale="   52.184">  2  5  1 -1</clus>
<clus scale="   73.720">  2  6  1 -1</clus>
<clus scale="  356.855">  2  3  1 -1</clus>
<clus scale="  356.855">  1  3  2 -1</clus>
</clustering>
</event>
<event>
 6   2  0.3464723E-02  0.5652965E+03  0.7816531E-02  0.1003678E+00
       21   -1    0    0  504  503  0.00000000000E+00  0.00000000000E+00  0.25197333740E+03  0.25197333740E+03  0.00000000000E+00 0. -1.
        2   -1    0    0  503    0  0.00000000000E+00  0.00000000000E+00 -0.28313397880E+04  0.28313397880E+04  0.00000000000E+00 0. -1.
  1000006    1    1    2  501    0 -0.36045698338E+02 -0.32165696541E+03 -0.85721607230E+03  0.98085773197E+03  0.35000000000E+03 0.  0.
 -1000006    1    1    2    0  502  0.35851643312E+03 -0.84535290796E+02 -0.64467118435E+03  0.82084175341E+03  0.35000000000E+03 0.  0.
       21    1    1    2  504  501  0.28147792460E+02  0.15768697004E+02  0.37411510015E+02  0.49402136666E+02  0.00000000000E+00 0. -1.
        2    1    1    2  502    0 -0.35061852724E+03  0.39042355920E+03 -0.11148907040E+04  0.12322115034E+04  0.00000000000E+00 0. -1.
<scales pt_clust_1="13000.00000" pt_clust_2="13000.00000" pt_clust_3="32.26376" pt_clust_4="443.91455"></scales>
<clustering>
<clus scale="   32.264">  1  5  2 -1</clus>
<clus scale="  473.018">  1  3  2 -1</clus>
<clus scale="  443.915">  2  6  1 -1</clus>
<clus scale="  565.296">  1  3  2 -1</clus>
</clustering>
</event>
<event>
 4   0  0.3464723E-02  0.3503568E+03  0.7816531E-02  0.1062469E+00
       21   -1    0    0  503  502  0.00000000000E+00  0.00000000000E+00  0.59830221909E+03  0.59830221909E+03  0.00000000000E+00 0.  1.
       21   -1    0    0  501  503  0.00000000000E+00  0.00000000000E+00 -0.23641171970E+03  0.23641171970E+03  0.00000000000E+00 0.  1.
  1000006    1    1    2  501    0  0.85483919732E+01 -0.13297287980E+02  0.29210704689E+02  0.35157240811E+03  0.35000000000E+03 0.  0.
 -1000006    1    1    2    0  502 -0.85483919732E+01  0.13297287980E+02  0.33267979470E+03  0.48314153068E+03  0.35000000000E+03 0.  0.
<scales pt_clust_1="13000.00000" pt_clust_2="13000.00000"></scales>
<clustering>
<clus scale="  350.357">  2  3  1 -1</clus>
<clus scale="  350.357">  1  3  2 -1</clus>
</clustering>
</event>
<event>
 6   2  0.3464723E-02  0.4410085E+03  0.7816531E-02  0.1030438E+00
       21   -1    0    0  504  502  0.00000000000E+00  0.00000000000E+00  0.10462836951E+04  0.10462836951E+04  0.00000000000E+00 0. -1.
       21   -1    0    0  505  503  0.00000000000E+00  0.00000000000E+00 -0.23976113392E+03  0.23976113392E+03  0.00000000000E+00 0. -1.
  1000006    1    1    2  501    0  0.51625813617E+02  0.28488450390E+03  0.27654626651E+03  0.53179154065E+03  0.35000000000E+03 0.  0.
 -1000006    1    1    2    0  502 -0.85931952782E+02 -0.24220740461E+03  0.49561062488E+03  0.65892231625E+03  0.35000000000E+03 0.  0.
       21    1    1    2  504  503  0.38158144897E+02 -0.62707528937E+01  0.42883124388E+02  0.57743646586E+02  0.00000000000E+00 0.  1.
       21    1    1    2  505  501 -0.38520057312E+01 -0.36406346387E+02 -0.85174546207E+01  0.37587325505E+02  0.00000000000E+00 0. -1.
<scales pt_clust_1="13000.00000" pt_clust_2="13000.00000" pt_clust_3="38.76232" pt_clust_4="36.60956"></scales>
<clustering>
<clus scale="   36.610">  2  6  1 -1</clus>
<clus scale="   38.762">  1  5  2 -1</clus>
<clus scale="  441.008">  1  4  2 -1</clus>
<clus scale="  441.008">  1  3  2 -1</clus>
</clustering>
</event>
<event>
 5   1  0.3464723E-02  0.4072185E+03  0.7816531E-02  0.1041308E+00
       21   -1    0    0  504  502  0.00000000000E+00  0.00000000000E+00  0.10860752010E+03  0.10860752010E+03  0.00000000000E+00 0. -1.
       21   -1    0    0  502  503  0.00000000000E+00  0.00000000000E+00 -0.26920401337E+04  0.26920401337E+04  0.00000000000E+00 0. -1.
  1000006    1    1    2  501    0  0.13628029632E+03 -0.18502325238E+03 -0.73382327339E+03  0.84486834457E+03  0.35000000000E+03 0.  0.
 -1000006    1    1    2    0  503 -0.13179733657E+03  0.15043827523E+03 -0.18716199121E+04  0.19145399730E+04  0.35000000000E+03 0.  0.
       21    1    1    2  504  501 -0.44829597524E+01  0.34584977157E+02  0.22010571974E+02  0.41239336218E+02  0.00000000000E+00 0. -1.
<scales pt_clust_1="13000.00000" pt_clust_2="13000.00000" pt_clust_3="34.87431"></scales>
<clustering>
<clus scale="   34.874">  1  5  2 -1</clus>
<clus scale="  407.219">  1  3  2 -1</clus>
<clus scale="  407.219">  1  3  2 -1</clus>
</clustering>
</event>
<event>
 5   1  0.3464723E-02  0.3864442E+03  0.7816531E-02  0.1048577E+00
       21   -1    0    0  504  502  0.00000000000E+00  0.00000000000E+00  0.63678825962E+03  0.63678825962E+03  0.00000000000E+00 0. -1.
       21   -1    0    0  501  503  0.00000000000E+00  0.00000000000E+00 -0.41084888570E+03  0.41084888570E+03  0.00000000000E+00 0. -1.
  1000006    1    1    2  501    0 -0.15895181492E+03  0.41275548575E+02 -0.78115935485E+02  0.39442546793E+03  0.35000000000E+03 0.  0.
 -1000006    1    1    2    0  502  0.17023550466E+03  0.37547956309E+02  0.58867318251E+02  0.39541792730E+03  0.35000000000E+03 0.  0.
       21    1    1    2  504  503 -0.11283689740E+02 -0.78823504884E+02  0.24518799116E+03  0.25779375009E+03  0.00000000000E+00 0. -1.
<scales pt_clust_1="13000.00000" pt_clust_2="13000.00000" pt_clust_3="79.62705"></scales>
<clustering>
<clus scale="   79.627">  1  5  2 -1</clus>
<clus scale="  386.444">  2  3  1 -1</clus>
<clus scale="  386.444">  1  3  2 -1</clus>
</clustering>
</event>
<event>
 6   2  0.3464723E-02  0.3632349E+03  0.7816531E-02  0.1057310E+00
        2   -1    0    0  501    0  0.00000000000E+00  0.00000000000E+00  0.11178869263E+04  0.11178869263E+04  0.00000000000E+00 0. -1.
       21   -1    0    0  504  503  0.00000000000E+00  0.00000000000E+00 -0.49960783685E+03  0.49960783685E+03  0.00000000000E+00 0. -1.
  1000006    1    1    2  501    0  0.31005137198E+01 -0.88090555891E+02  0.63816505832E+03  0.73316041961E+03  0.35000000000E+03 0.  0.
 -1000006    1    1    2    0  503  0.31938044082E+02  0.64256006543E+02 -0.11213506063E+03  0.37446380981E+03  0.35000000000E+03 0.  0.
       21    1    1    2  504  502  0.18953740882E+01  0.37574771444E+02 -0.20580858511E+03  0.20921909472E+03  0.00000000000E+00 0. -1.
        2    1    1    2  502    0 -0.36933931890E+02 -0.13740222096E+02  0.29805767690E+03  0.30065143902E+03  0.00000000000E+00 0. -1.
<scales pt_clust_1="13000.00000" pt_clust_2="13000.00000" pt_clust_3="37.62254" pt_clust_4="39.34121"></scales>
<clustering>
<clus scale="   37.623">  2  5  1 -1</clus>
<clus scale="   39.341">  1  6  2 -1</clus>
<clus scale="  363.235">  2  4  1 -1</clus>
<clus scale="  363.235">  2  3  1 -1</clus>
</clustering>
</event>
<event>
 5   1  0.3464723E-02  0.6313833E+03  0.7816531E-02  0.9989935E-01
       21   -1    0    0  503  502  0.00000000000E+00  0.00000000000E+00  0.92087223315E+03  0.92087223315E+03  0.00000000000E+00 0.  1.
       21   -1    0    0  501  503  0.00000000000E+00  0.00000000000E+00 -0.10365652961E+04  0.10365652961E+04  0.00000000000E+00 0.  1.
  1000006    1    1    2  501    0 -0.14986458524E+03  0.98817057451E+02 -0.24671173557E+03  0.46431765551E+03  0.35000000000E+03 0.  0.
 -1000006    1    1    2    0  504 -0.36220041750E+03 -0.27828732533E+03 -0.42564500591E+03  0.71575599818E+03  0.35000000000E+03 0.  0.
       21    1    1    2  504  502  0.51206500274E+03  0.17947026788E+03  0.55666367851E+03  0.77736387557E+03  0.00000000000E+00 0.  1.
<scales pt_clust_1="13000.00000" pt_clust_2="13000.00000" pt_clust_3="525.49486"></scales>
<clustering>
<clus scale="  393.350">  2  3  1 -1</clus>
<clus scale="  525.495">  1  5  2 -1</clus>
<clus scale="  631.383">  1  3  2 -1</clus>
</clustering>
</event>
<event>
 6   2  0.3464723E-02  0.4167192E+03  0.7816531E-02  0.1038139E+00
       21   -1    0    0  505  502  0.00000000000E+00  0.00000000000E+00  0.18064532099E+04  0.18064532099E+04  0.00000000000E+00 0. -1.
       21   -1    0    0  501  503  0.00000000000E+00  0.00000000000E+00 -0.13937167567E+03  0.13937167567E+03  0.00000000000E+00 0. -1.
  1000006    1    1    2  501    0 -0.19390196887E+03  0.16368412779E+03  0.39709129847E+03  0.58700252686E+03  0.35000000000E+03 0.  0.
 -1000006    1    1    2    0  504  0.16543900798E+03 -0.98536529828E+02  0.10706374966E+04  0.11427353859E+04  0.35000000000E+03 0.  0.
       21    1    1    2  504  502  0.29238928603E+02 -0.30925905101E+02  0.15073178527E+03  0.15662502241E+03  0.00000000000E+00 0.  1.
       21    1    1    2  505  503 -0.77596771065E+00 -0.34221692865E+02  0.48620953909E+02  0.59461950418E+02  0.00000000000E+00 0. -1.
<scales pt_clust_1="13000.00000" pt_clust_2="13000.00000" pt_clust_3="43.09823" pt_clust_4="34.23049"></scales>
<clustering>
<clus scale="   34.230">  2  6  1 -1</clus>
<clus scale="   43.098">  1  5  2 -1</clus>
<clus scale="  416.719">  2  3  1 -1</clus>
<clus scale="  416.719">  1  3  2 -1</clus>
</clustering>
</event>
<event>
 4   0  0.3464723E-02  0.4236424E+03  0.7816531E-02  0.1035887E+00
       21   -1    0    0  503  502  0.00000000000E+00  0.00000000000E+00  0.16983079166E+03  0.16983079166E+03  0.00000000000E+00 0. -1.
       21   -1    0    0  501  503  0.00000000000E+00  0.00000000000E+00 -0.14835849156E+04  0.14835849156E+04  0.00000000000E+00 0. -1.
  1000006    1    1    2  501    0 -0.83593494021E+02  0.22357318993E+03 -0.11002951273E+04  0.11790344399E+04  0.35000000000E+03 0.  0.
 -1000006    1    1    2    0  502  0.83593494021E+02 -0.22357318993E+03 -0.21345899664E+03  0.47438126728E+03  0.35000000000E+03 0.  0.
<scales pt_clust_1="13000.00000" pt_clust_2="13000.00000"></scales>
<clustering>
<clus scale="  423.642">  2  3  1 -1</clus>
<clus scale="  423.642">  1  3  2 -1</clus>
</clustering>
</event>
<event>
 5   1  0.3464723E-02  0.3738373E+03  0.7816531E-02  0.1053235E+00
       21   -1    0    0  501  503  0.00000000000E+00  0.00000000000E+00  0.55061501114E+03  0.55061501114E+03  0.00000000000E+00 0.  1.
        2   -1    0    0  503    0  0.00000000000E+00  0.00000000000E+00 -0.63101750591E+03  0.63101750591E+03  0.00000000000E+00 0.  1.
  1000006    1    1    2  501    0  0.94742425166E+02  0.10155609251E+03  0.17653044735E+03  0.41587590204E+03  0.35000000000E+03 0.  0.
 -1000006    1    1    2    0  502 -0.10257871581E+03 -0.70470083789E+02  0.11776605904E+03  0.38968868383E+03  0.35000000000E+03 0.  0.
        2    1    1    2  502    0  0.78362906470E+01 -0.31086008718E+02 -0.37469900116E+03  0.37606793118E+03  0.00000000000E+00 0.  1.
<scales pt_clust_1="13000.00000" pt_clust_2="13000.00000" pt_clust_3="32.05850"></scales>
<clustering>
<clus scale="   32.058">  2  5  1 -1</clus>
<clus scale="  373.837">  1  3  2 -1</clus>
<clus scale="  373.837">  1  3  2 -1</clus>
</clustering>
</event>
<event>
 4   0  0.3464723E-02  0.3736947E+03  0.7816531E-02  0.1053289E+00
       21   -1    0    0  501  502  0.00000000000E+00  0.00000000000E+00  0.29789478351E+03  0.29789478351E+03  0.00000000000E+00 0. -1.
       21   -1    0    0  502  503  0.00000000000E+00  0.00000000000E+00 -0.66652442976E+03  0.66652442976E+03  0.00000000000E+00 0. -1.
  1000006    1    1    2  501    0  0.42812238702E+02 -0.12375327285E+03  0.78335281817E+02  0.38181694135E+03  0.35000000000E+03 0.  0.
 -1000006    1    1    2    0  503 -0.42812238702E+02  0.12375327285E+03 -0.44696492807E+03  0.58260227192E+03  0.35000000000E+03 0.  0.
<scales pt_clust_1="13000.00000" pt_clust_2="13000.00000"></scales>
<clustering>
<clus scale="  373.695">  1  3  2 -1</clus>
<clus scale="  373.695">  1  3  2 -1</clus>
</clustering>
</event>
<event>
 4   0  0.3464723E-02  0.4308098E+03  0.7816531E-02  0.1033604E+00
       21   -1    0    0  503  502  0.00000000000E+00  0.00000000000E+00  0.10435844968E+03  0.10435844968E+03  0.00000000000E+00 0.  1.
       21   -1    0    0  501  503  0.00000000000E+00  0.00000000000E+00 -0.17975179634E+04  0.17975179634E+04  0.00000000000E+00 0.  1.
  1000006    1    1    2  501    0  0.23065613896E+03  0.99472927936E+02 -0.94450099865E+03  0.10381133148E+04  0.35000000000E+03 0.  0.
 -1000006    1    1    2    0  502 -0.23065613896E+03 -0.99472927936E+02 -0.74865851512E+03  0.86376309837E+03  0.35000000000E+03 0.  0.
<scales pt_clust_1="13000.00000" pt_clust_2="13000.00000"></scales>
<clustering>
<clus scale="  430.810">  2  3  1 -1</clus>
<clus scale="  430.810">  1  3  2 -1</clus>
</clustering>
</event>
<event>
 6   2  0.3464723E-02  0.3757934E+03  0.7816531E-02  0.1052500E+00
       21   -1    0    0  505  502  0.00000000000E+00  0.00000000000E+00  0.14758541782E+03  0.14758541782E+03  0.00000000000E+00 0.  1.
       21   -1    0    0  504  503  0.00000000000E+00  0.00000000000E+00 -0.16448801364E+04  0.16448801364E+04  0.00000000000E+00 0.  1.
  1000006    1    1    2  501    0 -0.99345665316E+02  0.13422773895E+03 -0.36726517971E+03  0.53410706731E+03  0.35000000000E+03 0.  0.
 -1000006    1    1    2    0  503  0.10921020194E+03 -0.67930386700E+02 -0.10947662973E+04  0.11565269783E+04  0.35000000000E+03 0.  0.
       21    1    1    2  504  502  0.19967366772E+02 -0.51701349968E+02 -0.39909155021E+02  0.68296895821E+02  0.00000000000E+00 0. -1.
       21    1    1    2  505  501 -0.29831903394E+02 -0.14596002282E+02  0.46459135339E+01  0.33534612795E+02  0.00000000000E+00 0. -1.
<scales pt_clust_1="13000.00000" pt_clust_2="13000.00000" pt_clust_3="55.85968" pt_clust_4="33.21123"></scales>
<clustering>
<clus scale="   33.211">  1  6  2 -1</clus>
<clus scale="   55.860">  1  5  2 -1</clus>
<clus scale="  375.793">  2  4  1 -1</clus>
<clus scale="  375.793">  1  3  2 -1</clus>
</clustering>
</event>
<event>
 6   2  0.3464723E-02  0.4986705E+03  0.7816531E-02  0.1014127E+00
       21   -1    0    0  505  502  0.00000000000E+00  0.00000000000E+00  0.37230415761E+03  0.37230415761E+03  0.00000000000E+00 0.  1.
       21   -1    0    0  504  503  0.00000000000E+00  0.00000000000E+00 -0.10848357120E+04  0.10848357120E+04  0.00000000000E+00 0.  1.
  1000006    1    1    2  501    0  0.28087415826E+03 -0.22608497465E+03 -0.33432989744E+03  0.60355711317E+03  0.35000000000E+03 0.  0.
 -1000006    1    1    2    0  502 -0.25586923330E+03  0.24251001616E+03 -0.44612372935E+02  0.49876892075E+03  0.35000000000E+03 0.  0.
       21    1    1    2  504  501  0.28716098192E+02  0.19835858306E+02 -0.35587540455E+02  0.49845246571E+02  0.00000000000E+00 0.  1.
       21    1    1    2  505  503 -0.53721023148E+02 -0.36260899820E+02 -0.29800174354E+03  0.30496858910E+03  0.00000000000E+00 0.  1.
<scales pt_clust_1="13000.00000" pt_clust_2="13000.00000" pt_clust_3="34.90094" pt_clust_4="54.71744"></scales>
<clustering>
<clus scale="   34.901">  2  5  1 -1</clus>
<clus scale="   54.717">  2  6  1 -1</clus>
<clus scale="  498.670">  1  4  2 -1</clus>
<clus scale="  498.670">  1  3  2 -1</clus>
</clustering>
</event>
<event>
 5   1  0.3464723E-02  0.8773668E+03  0.7816531E-02  0.9539056E-01
       21   -1    0    0  504  502  0.00000000000E+00  0.00000000000E+00  0.82231744659E+03  0.82231744659E+03  0.00000000000E+00 0. -1.
       21   -1    0    0  501  503  0.00000000000E+00  0.00000000000E+00 -0.18798857707E+04  0.18798857707E+04  0.00000000000E+00 0.  1.
  1000006    1    1    2  501    0 -0.36629548939E+02  0.86772336799E+03 -0.53719659697E+03  0.10795210748E+04  0.35000000000E+03 0.  0.
 -1000006    1    1    2    0  502 -0.49998084801E+03 -0.22975809263E+03 -0.24233269993E+02  0.65257710723E+03  0.35000000000E+03 0.  0.
       21    1    1    2  504  503  0.53661039695E+03 -0.63796527536E+03 -0.49613845714E+03  0.97010503521E+03  0.00000000000E+00 0.  1.
<scales pt_clust_1="13000.00000" pt_clust_2="13000.00000" pt_clust_3="804.53249"></scales>
<clustering>
<clus scale="  652.127">  1  4  2 -1</clus>
<clus scale="  804.532">  2  5  1 -1</clus>
<clus scale="  877.367">  1  3  2 -1</clus>
</clustering>
</event>
<event>
 5   1  0.3464723E-02  0.5426967E+03  0.7816531E-02  0.1003199E+00
       21   -1    0    0  502  503  0.00000000000E+00  0.00000000000E+00  0.16743362603E+04  0.16743362603E+04  0.00000000000E+00 0.  1.
        2   -1    0    0  501    0  0.00000000000E+00  0.00000000000E+00 -0.11519663720E+04  0.11519663720E+04  0.00000000000E+00 0.  1.
  1000006    1    1    2  501    0 -0.51437396164E+02 -0.43948397078E+03  0.20338371770E+03  0.59971401761E+03  0.35000000000E+03 0.  0.
 -1000006    1    1    2    0  503  0.10032803053E+02  0.40710604213E+03  0.12153485034E+04  0.13286865587E+04  0.35000000000E+03 0.  0.
        2    1    1    2  502    0  0.41404593111E+02  0.32377928653E+02 -0.89636233279E+03  0.89790205603E+03  0.00000000000E+00 0.  1.
<scales pt_clust_1="13000.00000" pt_clust_2="13000.00000" pt_clust_3="52.56111"></scales>
<clustering>
<clus scale="   52.561">  2  5  1 -1</clus>
<clus scale="  542.697">  2  3  1 -1</clus>
<clus scale="  542.697">  1  3  2 -1</clus>
</clustering>
</event>
<event>
 6   2  0.3464723E-02  0.4834040E+03  0.7816531E-02  0.1018204E+00
       21   -1    0    0  504  503  0.00000000000E+00  0.00000000000E+00  0.65798832819E+03  0.65798832819E+03  0.00000000000E+00 0.  1.
       21   -1    0    0  501  504  0.00000000000E+00  0.00000000000E+00 -0.63987832356E+03  0.63987832356E+03  0.00000000000E+00 0. -1.
  1000006    1    1    2  501    0 -0.35072594474E+03  0.21454031693E+02 -0.27543848230E+03  0.56730531579E+03  0.35000000000E+03 0.  0.
 -1000006    1    1    2    0  502  0.29313025612E+03 -0.88729218598E+02  0.63737126256E+02  0.46942586481E+03  0.35000000000E+03 0.  0.
        3    1    1    2  502    0  0.28943823370E+02  0.45361191498E+02  0.37784195407E+02  0.65749737855E+02  0.00000000000E+00 0.  1.
       -3    1    1    2    0  503  0.28651865253E+02  0.21913995406E+02  0.19202716526E+03  0.19538573330E+03  0.00000000000E+00 0. -1.
<scales pt_clust_1="13000.00000" pt_clust_2="13000.00000" pt_clust_3="57.60347" pt_clust_4="36.07149"></scales>
<clustering>
<clus scale="   36.071">  1  6  2 -1</clus>
<clus scale="   57.603">  1  5  2 -1</clus>
<clus scale="  483.404">  2  3  1 -1</clus>
<clus scale="  483.404">  1  3  2 -1</clus>
</clustering>
</event>
<event>
 5   1  0.3464723E-02  0.4152580E+03  0.7816531E-02  0.1038621E+00
       21   -1    0    0  504  502  0.00000000000E+00  0.00000000000E+00  0.10677242853E+04  0.10677242853E+04  0.00000000000E+00 0.  1.
       21   -1    0    0  502  503  0.00000000000E+00  0.00000000000E+00 -0.25013261602E+03  0.25013261602E+03  0.00000000000E+00 0.  1.
  1000006    1    1    2  501    0  0.18708154095E+03  0.93716391320E+02  0.23873751053E+03  0.47252287130E+03  0.35000000000E+03 0.  0.
 -1000006    1    1    2    0  503 -0.24116845428E+03 -0.33759500700E+02  0.22445573339E+03  0.48185298949E+03  0.35000000000E+03 0.  0.
       21    1    1    2  504  501  0.54086913329E+02 -0.59956890621E+02  0.35439842536E+03  0.36348104053E+03  0.00000000000E+00 0. -1.
<scales pt_clust_1="13000.00000" pt_clust_2="13000.00000" pt_clust_3="80.74790"></scales>
<clustering>
<clus scale="   80.748">  1  5  2 -1</clus>
<clus scale="  415.258">  1  3  2 -1</clus>
<clus scale="  415.258">  1  3  2 -1</clus>
</clustering>
</event>
<event>
 4   0  0.3464723E-02  0.5515538E+03  0.7816531E-02  0.1001135E+00
       21   -1    0    0  501  502  0.00000000000E+00  0.00000000000E+00  0.64322913466E+03  0.64322913466E+03  0.00000000000E+00 0. -1.
       21   -1    0    0  502  503  0.00000000000E+00  0.00000000000E+00 -0.47377378631E+03  0.47377378631E+03  0.00000000000E+00 0.  1.
  1000006    1    1    2  501    0 -0.20821173291E+03  0.37196698354E+03  0.10809663761E+03  0.56204665788E+03  0.35000000000E+03 0.  0.
 -1000006    1    1    2    0  503  0.20821173291E+03 -0.37196698354E+03  0.61358710739E+02  0.55495626310E+03  0.35000000000E+03 0.  0.
<scales pt_clust_1="13000.00000" pt_clust_2="13000.00000"></scales>
<clustering>
<clus scale="  551.554">  1  3  2 -1</clus>
<clus scale="  551.554">  1  3  2 -1</clus>
</clustering>
</event>
<event>
 5   1  0.3464723E-02  0.5268960E+03  0.7816531E-02  0.1006988E+00
       21   -1    0    0  504  502  0.00000000000E+00  0.00000000000E+00  0.56331281391E+03  0.56331281391E+03  0.00000000000E+00 0. -1.
       21   -1    0    0  502  503  0.00000000000E+00  0.00000000000E+00 -0.69823168002E+03  0.69823168002E+03  0.00000000000E+00 0.  1.
  1000006    1    1    2  501    0 -0.30109723748E+03  0.25089438729E+03  0.15203828065E+03  0.54701296033E+03  0.35000000000E+03 0.  0.
 -1000006    1    1    2    0  503  0.32911764074E+03 -0.21892855180E+03 -0.35363435594E+03  0.63545683562E+03  0.35000000000E+03 0.  0.
       21    1    1    2  504  501 -0.28020403254E+02 -0.31965835491E+02  0.66677209176E+02  0.79074697980E+02  0.00000000000E+00 0.  1.
<scales pt_clust_1="13000.00000" pt_clust_2="13000.00000" pt_clust_3="42.50832"></scales>
<clustering>
<clus scale="   42.508">  1  5  2 -1</clus>
<clus scale="  526.896">  2  4  1 -1</clus>
<clus scale="  526.896">  1  3  2 -1</clus>
</clustering>
</event>
<event>
 6   2  0.3464723E-02  0.3590645E+03  0.7816531E-02  0.1058955E+00
        2   -1    0    0  504    0  0.00000000000E+00  0.00000000000E+00  0.16046376593E+04  0.16046376593E+04  0.00000000000E+00 0.  1.
       21   -1    0    0  502  503  0.00000000000E+00  0.00000000000E+00 -0.47774772323E+03  0.47774772323E+03  0.00000000000E+00 0.  1.
  1000006    1    1    2  501    0  0.10240074606E+03 -0.32135970667E+02  0.31034300585E+02  0.36739864074E+03  0.35000000000E+03 0.  0.
 -1000006    1    1    2    0  503 -0.67825163020E+02 -0.24704888684E+02 -0.18472102705E+03  0.40228403162E+03  0.35000000000E+03 0.  0.
       21    1    1    2  504  501 -0.47050509594E+02  0.22495197786E+02  0.27246703055E+02  0.58840183581E+02  0.00000000000E+00 0.  1.
        2    1    1    2  502    0  0.12474926558E+02  0.34345661565E+02  0.12533299595E+04  0.12538625266E+04  0.00000000000E+00 0.  1.
<scales pt_clust_1="13000.00000" pt_clust_2="13000.00000" pt_clust_3="52.77679" pt_clust_4="36.54105"></scales>
<clustering>
<clus scale="   36.541">  1  6  2 -1</clus>
<clus scale="   52.777">  1  5  2 -1</clus>
<clus scale="  359.065">  2  4  1 -1</clus>
<clus scale="  359.065">  2  3  1 -1</clus>
</clustering>
</event>
<event>
 5   1  0.3464723E-02  0.4177152E+03  0.7816531E-02  0.1037812E+00
        2   -1    0    0  503    0  0.00000000000E+00  0.00000000000E+00  0.35538689993E+03  0.35538689993E+03  0.00000000000E+00 0. -1.
       21   -1    0    0  501  503  0.00000000000E+00  0.00000000000E+00 -0.87483240432E+03  0.87483240432E+03  0.00000000000E+00 0. -1.
  1000006    1    1    2  501    0  0.21358031107E+03 -0.66666498422E+02 -0.61743894549E+03  0.74417190400E+03  0.35000000000E+03 0.  0.
 -1000006    1    1    2    0  502 -0.22197268640E+03  0.10862282421E+03  0.68047481871E+02  0.43382168138E+03  0.35000000000E+03 0.  0.
        2    1    1    2  502    0  0.83923753301E+01 -0.41956325789E+02  0.29945959236E+02  0.52225718875E+02  0.00000000000E+00 0. -1.
<scales pt_clust_1="13000.00000" pt_clust_2="13000.00000" pt_clust_3="42.78744"></scales>
<clustering>
<clus scale="   42.787">  1  5  2 -1</clus>
<clus scale="  417.715">  2  3  1 -1</clus>
<clus scale="  417.715">  2  3  1 -1</clus>
</clustering>
</event>
<event>
 5   1  0.3464723E-02  0.4014535E+03  0.7816531E-02  0.1043278E+00
       21   -1    0    0  501  502  0.00000000000E+00  0.00000000000E+00  0.53867442994E+03  0.53867442994E+03  0.00000000000E+00 0. -1.
       21   -1    0    0  502  503  0.00000000000E+00  0.00000000000E+00 -0.33154729113E+03  0.33154729113E+03  0.00000000000E+00 0. -1.
  1000006    1    1    2  501    0 -0.17918260687E+02  0.18050547770E+03  0.11615272870E+03  0.41096806193E+03  0.35000000000E+03 0.  0.
 -1000006    1    1    2    0  504  0.25686880252E+02 -0.21146074165E+03  0.10710493154E+03  0.42349371594E+03  0.35000000000E+03 0.  0.
       21    1    1    2  504  503 -0.77686195649E+01  0.30955263950E+02 -0.16130521430E+02  0.35759943201E+02  0.00000000000E+00 0. -1.
<scales pt_clust_1="13000.00000" pt_clust_2="13000.00000" pt_clust_3="31.91520"></scales>
<clustering>
<clus scale="   31.915">  2  5  1 -1</clus>
<clus scale="  401.454">  1  3  2 -1</clus>
<clus scale="  401.454">  1  3  2 -1</clus>
</clustering>
</event>
<event>
 5   1  0.3464723E-02  0.3646767E+03  0.7816531E-02  0.1056747E+00
       21   -1    0    0  504  502  0.00000000000E+00  0.00000000000E+00  0.71824950141E+03  0.71824950141E+03  0.00000000000E+00 0. -1.
       21   -1    0    0  501  503  0.00000000000E+00  0.00000000000E+00 -0.20644008107E+03  0.20644008107E+03  0.00000000000E+00 0. -1.
  1000006    1    1    2  501    0  0.93889623760E+02  0.25458467144E+02  0.18074221209E+03  0.40574763367E+03  0.35000000000E+03 0.  0.
 -1000006    1    1    2    0  502 -0.95704728752E+02 -0.57431319595E+02  0.30913488164E+03  0.48012719838E+03  0.35000000000E+03 0.  0.
       21    1    1    2  504  503  0.18151049922E+01  0.31972852451E+02  0.21932326607E+02  0.38814750423E+02  0.00000000000E+00 0. -1.
<scales pt_clust_1="13000.00000" pt_clust_2="13000.00000" pt_clust_3="32.02433"></scales>
<clustering>
<clus scale="   32.024">  1  5  2 -1</clus>
<clus scale="  364.677">  2  3  1 -1</clus>
<clus scale="  364.677">  1  3  2 -1</clus>
</clustering>
</event>
<event>
 6   2  0.3464723E-02  0.3546392E+03  0.7816531E-02  0.1060727E+00
       21   -1    0    0  505  502  0.00000000000E+00  0.00000000000E+00  0.11784248839E+04  0.11784248839E+04  0.00000000000E+00 0.  1.
       21   -1    0    0  504  503  0.00000000000E+00  0.00000000000E+00 -0.49085662939E+03  0.49085662939E+03  0.00000000000E+00 0.  1.
  1000006    1    1    2  501    0 -0.12845740464E+03  0.49670803012E+02 -0.68413883797E+02  0.38229432768E+03  0.35000000000E+03 0.  0.
 -1000006    1    1    2    0  502 -0.20438078714E+02  0.95096142419E+02  0.25472231591E+03  0.44367155598E+03  0.35000000000E+03 0.  0.
       21    1    1    2  504  501  0.11486186395E+03 -0.12328465384E+03 -0.12872685039E+03  0.21204470207E+03  0.00000000000E+00 0.  1.
       21    1    1    2  505  503  0.34033619397E+02 -0.21482291590E+02  0.62998667283E+03  0.63127092761E+03  0.00000000000E+00 0.  1.
<scales pt_clust_1="13000.00000" pt_clust_2="13000.00000" pt_clust_3="171.46169" pt_clust_4="40.24644"></scales>
<clustering>
<clus scale="   40.246">  1  6  2 -1</clus>
<clus scale="  171.462">  2  5  1 -1</clus>
<clus scale="  354.639">  1  4  2 -1</clus>
<clus scale="  354.639">  1  3  2 -1</clus>
</clustering>
</event>
<event>
 4   0  0.3464723E-02  0.3727659E+03  0.7816531E-02  0.1053640E+00
       21   -1    0    0  503  502  0.00000000000E+00  0.00000000000E+00  0.13599176729E+04  0.13599176729E+04  0.00000000000E+00 0. -1.
       21   -1    0    0  501  503  0.00000000000E+00  0.00000000000E+00 -0.10261928948E+03  0.10261928948E+03  0.00000000000E+00 0. -1.
  1000006    1    1    2  501    0  0.10250276777E+03 -0.77120700129E+02  0.58072531573E+03  0.69006978786E+03  0.35000000000E+03 0.  0.
 -1000006    1    1    2    0  502 -0.10250276777E+03  0.77120700129E+02  0.67657306773E+03  0.77246717456E+03  0.35000000000E+03 0.  0.
<scales pt_clust_1="13000.00000" pt_clust_2="13000.00000"></scales>
<clustering>
<clus scale="  372.766">  2  3  1 -1</clus>
<clus scale="  372.766">  1  3  2 -1</clus>
</clustering>
</event>
<event>
 5   1  0.3464723E-02  0.5835561E+03  0.7816531E-02  0.9940122E-01
       -2   -1    0    0    0  501  0.00000000000E+00  0.00000000000E+00  0.47258906740E+03  0.47258906740E+03  0.00000000000E+00 0.  1.
        2   -1    0    0  503    0  0.00000000000E+00  0.00000000000E+00 -0.12677464426E+04  0.12677464426E+04  0.00000000000E+00 0. -1.
  1000006    1    1    2  502    0  0.31481727173E+03  0.44424734338E+03 -0.51962233615E+03  0.83004396805E+03  0.35000000000E+03 0.  0.
 -1000006    1    1    2    0  501 -0.27006662306E+03 -0.34464631917E+03  0.53991617216E+02  0.56314488450E+03  0.35000000000E+03 0.  0.
       21    1    1    2  503  502 -0.44750648670E+02 -0.99601024215E+02 -0.32952665628E+03  0.34714665746E+03  0.00000000000E+00 0. -1.
<scales pt_clust_1="13000.00000" pt_clust_2="13000.00000" pt_clust_3="109.19242"></scales>
<clustering>
<clus scale="  109.192">  2  5  1 -1</clus>
<clus scale=" 1159.629">  3  4 -1 -1</clus>
<clus scale="  583.556">  2  3  1 -1</clus>
</clustering>
</event>
<event>
 6   2  0.3464723E-02  0.3888378E+03  0.7816531E-02  0.1047715E+00
       21   -1    0    0  501  502  0.00000000000E+00  0.00000000000E+00  0.75023026311E+03  0.75023026311E+03  0.00000000000E+00 0. -1.
       21   -1    0    0  505  503  0.00000000000E+00  0.00000000000E+00 -0.54734020345E+03  0.54734020345E+03  0.00000000000E+00 0. -1.
  1000006    1    1    2  501    0 -0.20459370583E+02 -0.24580294461E+03  0.39489794739E+03  0.58247923764E+03  0.35000000000E+03 0.  0.
 -1000006    1    1    2    0  503 -0.39285142611E+02 -0.12475120983E+02 -0.84012026616E+02  0.36229404037E+03  0.35000000000E+03 0.  0.
       21    1    1    2  504  502  0.85505236261E+02  0.16720783975E+03  0.25110426316E+02  0.18947332427E+03  0.00000000000E+00 0. -1.
       21    1    1    2  505  504 -0.25760723066E+02  0.91070225845E+02 -0.13310628743E+03  0.16332386428E+03  0.00000000000E+00 0. -1.
<scales pt_clust_1="13000.00000" pt_clust_2="13000.00000" pt_clust_3="202.51706" pt_clust_4="94.64355"></scales>
<clustering>
<clus scale="   94.644">  2  6  1 -1</clus>
<clus scale="  202.517">  2  5  1 -1</clus>
<clus scale="  388.838">  1  3  2 -1</clus>
<clus scale="  388.838">  1  3  2 -1</clus>
</clustering>
</event>
<event>
 4   0  0.3464723E-02  0.3939881E+03  0.7816531E-02  0.1045881E+00
       21   -1    0    0  503  502  0.00000000000E+00  0.00000000000E+00  0.39568599674E+03  0.39568599674E+03  0.00000000000E+00 0. -1.
       21   -1    0    0  501  503  0.00000000000E+00  0.00000000000E+00 -0.51516322637E+03  0.51516322637E+03  0.00000000000E+00 0. -1.
  1000006    1    1    2  501    0  0.72903459455E+02  0.16556487054E+03 -0.28215121404E+03  0.48459874984E+03  0.35000000000E+03 0.  0.
 -1000006    1    1    2    0  502 -0.72903459455E+02 -0.16556487054E+03  0.16267398442E+03  0.42625047327E+03  0.35000000000E+03 0.  0.
<scales pt_clust_1="13000.00000" pt_clust_2="13000.00000"></scales>
<clustering>
<clus scale="  393.988">  2  3  1 -1</clus>
<clus scale="  393.988">  1  3  2 -1</clus>
</clustering>
</event>
<event>
 6   2  0.3464723E-02  0.5079880E+03  0.7816531E-02  0.1011715E+00
       21   -1    0    0  503  502  0.00000000000E+00  0.00000000000E+00  0.23554690898E+04  0.23554690898E+04  0.00000000000E+00 0. -1.
       21   -1    0    0  505  503  0.00000000000E+00  0.00000000000E+00 -0.16684052683E+03  0.16684052683E+03  0.00000000000E+00 0.  1.
  1000006    1    1    2  501    0  0.38298730833E+03  0.80688088088E+02  0.82189155264E+03  0.97529255621E+03  0.35000000000E+03 0.  0.
 -1000006    1    1    2    0  504 -0.33070110026E+03 -0.83736320408E+02  0.98197469620E+03  0.10968816222E+04  0.35000000000E+03 0.  0.
       21    1    1    2  504  502 -0.46866047113E+02 -0.31231024571E+02  0.40570874079E+03  0.40959905471E+03  0.00000000000E+00 0.  1.
       21    1    1    2  505  501 -0.54201609517E+01  0.34279256891E+02 -0.20946426680E+02  0.40536383514E+02  0.00000000000E+00 0. -1.
<scales pt_clust_1="13000.00000" pt_clust_2="13000.00000" pt_clust_3="56.11335" pt_clust_4="34.70512"></scales>
<clustering>
<clus scale="   34.705">  2  6  1 -1</clus>
<clus scale="   56.113">  1  5  2 -1</clus>
<clus scale="  507.988">  1  4  2 -1</clus>
<clus scale="  507.988">  1  3  2 -1</clus>
</clustering>
</event>
<event>
 6   2  0.3464723E-02  0.3847825E+03  0.7816531E-02  0.1049180E+00
       -1   -1    0    0    0  501  0.00000000000E+00  0.00000000000E+00  0.13466091983E+04  0.13466091983E+04  0.00000000000E+00 0.  1.
       21   -1    0    0  504  503  0.00000000000E+00  0.00000000000E+00 -0.31399040153E+03  0.31399040153E+03  0.00000000000E+00 0.  1.
  1000006    1    1    2  502    0  0.10269015718E+03 -0.57980878110E+02  0.10960391338E+03  0.38525325234E+03  0.35000000000E+03 0.  0.
 -1000006    1    1    2    0  501  0.17883413320E+02  0.22528547168E+03  0.36699071790E+03  0.55520766137E+03  0.35000000000E+03 0.  0.
       21    1    1    2  504  502 -0.72257423394E+02 -0.15357791121E+03  0.81033817604E+01  0.16992049565E+03  0.00000000000E+00 0.  1.
       -1    1    1    2    0  503 -0.48316147107E+02 -0.13726682362E+02  0.54792078369E+03  0.55021819042E+03  0.00000000000E+00 0.  1.
<scales pt_clust_1="13000.00000" pt_clust_2="13000.00000" pt_clust_3="173.46064" pt_clust_4="50.22820"></scales>
<clustering>
<clus scale="   50.228">  1  6  2 -1</clus>
<clus scale="  173.461">  2  5  1 -1</clus>
<clus scale="  384.782">  1  4  2 -1</clus>
<clus scale="  384.782">  2  3  1 -1</clus>
</clustering>
</event>
<event>
 5   1  0.3464723E-02  0.5387158E+03  0.7816531E-02  0.1004140E+00
       21   -1    0    0  503  502  0.00000000000E+00  0.00000000000E+00  0.33800258802E+03  0.33800258802E+03  0.00000000000E+00 0. -1.
       21   -1    0    0  504  503  0.00000000000E+00  0.00000000000E+00 -0.21388153311E+04  0.21388153311E+04  0.00000000000E+00 0. -1.
  1000006    1    1    2  501    0  0.30273791713E+03 -0.23851231340E+03 -0.59555067772E+03  0.79102400712E+03  0.35000000000E+03 0.  0.
 -1000006    1    1    2    0  502 -0.30734671409E+03  0.28748306715E+03 -0.72708817459E+02  0.55217306046E+03  0.35000000000E+03 0.  0.
       21    1    1    2  504  501  0.46087969583E+01 -0.48970753743E+02 -0.11325532479E+04  0.11336208515E+04  0.00000000000E+00 0. -1.
<scales pt_clust_1="13000.00000" pt_clust_2="13000.00000" pt_clust_3="49.18715"></scales>
<clustering>
<clus scale="   49.187">  2  5  1 -1</clus>
<clus scale="  538.716">  2  3  1 -1</clus>
<clus scale="  538.716">  1  3  2 -1</clus>
</clustering>
</event>
<event>
 4   0  0.3464723E-02  0.3687767E+03  0.7816531E-02  0.1055162E+00
       21   -1    0    0  503  502  0.00000000000E+00  0.00000000000E+00  0.15386194787E+03  0.15386194787E+03  0.00000000000E+00 0.  1.
       21   -1    0    0  501  503  0.00000000000E+00  0.00000000000E+00 -0.91679526405E+03  0.91679526405E+03  0.00000000000E+00 0.  1.
  1000006    1    1    2  501    0  0.11358636856E+03 -0.24379529846E+02 -0.48289324382E+03  0.60760357926E+03  0.35000000000E+03 0.  0.
 -1000006    1    1    2    0  502 -0.11358636856E+03  0.24379529846E+02 -0.28004007235E+03  0.46305363266E+03  0.35000000000E+03 0.  0.
<scales pt_clust_1="13000.00000" pt_clust_2="13000.00000"></scales>
<clustering>
<clus scale="  368.777">  2  3  1 -1</clus>
<clus scale="  368.777">  1  3  2 -1</clus>
</clustering>
</event>
<event>
 6   2  0.3464723E-02  0.3501454E+03  0.7816531E-02  0.1062555E+00
       21   -1    0    0  505  502  0.00000000000E+00  0.00000000000E+00  0.14924326452E+03  0.14924326452E+03  0.00000000000E+00 0. -1.
       21   -1    0    0  504  503  0.00000000000E+00  0.00000000000E+00 -0.12364361881E+04  0.12364361881E+04  0.00000000000E+00 0. -1.
  1000006    1    1    2  501    0  0.22803712220E+02 -0.69618895867E+01 -0.53394491638E+03  0.63887843204E+03  0.35000000000E+03 0.  0.
 -1000006    1    1    2    0  502  0.31551543692E+02 -0.68633956947E+01 -0.36053134706E+03  0.50351311634E+03  0.35000000000E+03 0.  0.
       21    1    1    2  504  501 -0.53060012331E+02  0.48954177181E+02 -0.19512571793E+03  0.20805269085E+03  0.00000000000E+00 0.  1.
       21    1    1    2  505  503 -0.12952435812E+01 -0.35128891899E+02  0.24090578076E+01  0.35235213374E+02  0.00000000000E+00 0. -1.
<scales pt_clust_1="13000.00000" pt_clust_2="13000.00000" pt_clust_3="71.07229" pt_clust_4="35.15276"></scales>
<clustering>
<clus scale="   35.153">  1  6  2 -1</clus>
<clus scale="   71.072">  2  5  1 -1</clus>
<clus scale="  350.145">  2  3  1 -1</clus>
<clus scale="  350.145">  1  3  2 -1</clus>
</clustering>
</event>
<event>
 6   2  0.3464723E-02  0.3685805E+03  0.7816531E-02  0.1055237E+00
       21   -1    0    0  503  502  0.00000000000E+00  0.00000000000E+00  0.17942481080E+03  0.17942481080E+03  0.00000000000E+00 0.  1.
       21   -1    0    0  504  503  0.00000000000E+00  0.00000000000E+00 -0.21096029460E+04  0.21096029460E+04  0.00000000000E+00 0.  1.
  1000006    1    1    2  501    0  0.41451957362E+02 -0.15010002823E+03 -0.63576008441E+03  0.74225276569E+03  0.35000000000E+03 0.  0.
 -1000006    1    1    2    0  505 -0.11066291855E+03  0.64567320947E+02 -0.21730819447E+03  0.43143721659E+03  0.35000000000E+03 0.  0.
       21    1    1    2  504  501  0.44365120553E+02  0.10976541257E+03 -0.10739850507E+04  0.10804909065E+04  0.00000000000E+00 0.  1.
       21    1    1    2  505  502  0.24845840637E+02 -0.24232705284E+02 -0.31248055589E+01  0.34846868039E+02  0.00000000000E+00 0.  1.
<scales pt_clust_1="13000.00000" pt_clust_2="13000.00000" pt_clust_3="118.13226" pt_clust_4="34.70648"></scales>
<clustering>
<clus scale="   34.706">  1  6  2 -1</clus>
<clus scale="  118.132">  2  5  1 -1</clus>
<clus scale="  368.580">  1  4  2 -1</clus>
<clus scale="  368.580">  1  3  2 -1</clus>
</clustering>
</event>
<event>
 4   0  0.3464723E-02  0.3979704E+03  0.7816531E-02  0.1044485E+00
       -2   -1    0    0    0  501  0.00000000000E+00  0.00000000000E+00  0.65664814205E+03  0.65664814205E+03  0.00000000000E+00 0.  1.
        2   -1    0    0  502    0  0.00000000000E+00  0.00000000000E+00 -0.25025556867E+03  0.25025556867E+03  0.00000000000E+00 0. -1.
  1000006    1    1    2  502    0  0.11537963851E+03  0.15022651740E+03  0.28947607027E+03  0.49211468457E+03  0.35000000000E+03 0.  0.
 -1000006    1    1    2    0  501 -0.11537963851E+03 -0.15022651740E+03  0.11691650312E+03  0.41478902615E+03  0.35000000000E+03 0.  0.
<scales pt_clust_1="13000.00000" pt_clust_2="13000.00000"></scales>
<clustering>
<clus scale="  538.349">  3  4 -1 -1</clus>
<clus scale="  397.970">  2  3  1 -1</clus>
</clustering>
</event>
<event>
 6   2  0.3464723E-02  0.4021578E+03  0.7816531E-02  0.1043035E+00
        1   -1    0    0  501    0  0.00000000000E+00  0.00000000000E+00  0.13638776462E+04  0.13638776462E+04  0.00000000000E+00 0. -1.
       21   -1    0    0  504  503  0.00000000000E+00  0.00000000000E+00 -0.32251293858E+03  0.32251293858E+03  0.00000000000E+00 0. -1.
  1000006    1    1    2  501    0 -0.11036513960E+03 -0.10200830067E+03  0.43998231644E+03  0.58195411866E+03  0.35000000000E+03 0.  0.
 -1000006    1    1    2    0  503  0.32262873759E+03  0.66711564670E+02  0.23113457026E+03  0.53335065834E+03  0.35000000000E+03 0.  0.
       21    1    1    2  504  502 -0.19482230631E+03 -0.23481769646E+02  0.44294131161E+00  0.19623282279E+03  0.00000000000E+00 0.  1.
        1    1    1    2  502    0 -0.17441291682E+02  0.58778505648E+02  0.36980487966E+03  0.37485298505E+03  0.00000000000E+00 0. -1.
<scales pt_clust_1="13000.00000" pt_clust_2="13000.00000" pt_clust_3="197.34315" pt_clust_4="61.31159"></scales>
<clustering>
<clus scale="   61.312">  1  6  2 -1</clus>
<clus scale="  197.343">  2  5  1 -1</clus>
<clus scale="  402.158">  1  3  2 -1</clus>
<clus scale="  402.158">  2  3  1 -1</clus>
</clustering>
</event>
<event>
 4   0  0.3464723E-02  0.3599046E+03  0.7816531E-02  0.1058622E+00
       21   -1    0    0  503  502  0.00000000000E+00  0.00000000000E+00  0.18736947786E+03  0.18736947786E+03  0.00000000000E+00 0. -1.
       21   -1    0    0  501  503  0.00000000000E+00  0.00000000000E+00 -0.69341479501E+03  0.69341479501E+03  0.00000000000E+00 0. -1.
  1000006    1    1    2  501    0 -0.52208938468E+02  0.65616748391E+02 -0.27725700240E+03  0.45431572315E+03  0.35000000000E+03 0.  0.
 -1000006    1    1    2    0  502  0.52208938468E+02 -0.65616748391E+02 -0.22878831476E+03  0.42646854971E+03  0.35000000000E+03 0.  0.
<scales pt_clust_1="13000.00000" pt_clust_2="13000.00000"></scales>
<clustering>
<clus scale="  359.905">  2  3  1 -1</clus>
<clus scale="  359.905">  1  3  2 -1</clus>
</clustering>
</event>
<event>
 6   2  0.3464723E-02  0.5577929E+03  0.7816531E-02  0.9997061E-01
       21   -1    0    0  501  502  0.00000000000E+00  0.00000000000E+00  0.17617301955E+04  0.17617301955E+04  0.00000000000E+00 0.  1.
       21   -1    0    0  502  503  0.00000000000E+00  0.00000000000E+00 -0.34811304459E+03  0.34811304459E+03  0.00000000000E+00 0. -1.
  1000006    1    1    2  501    0  0.20771456704E+03 -0.38013805772E+03  0.95459212220E+03  0.11051680434E+04  0.35000000000E+03 0.  0.
 -1000006    1    1    2    0  505  0.31834873098E+02  0.49015016838E+03  0.27331095173E+03  0.66216276175E+03  0.35000000000E+03 0.  0.
       21    1    1    2  504  503 -0.60570084547E+02  0.15814099281E+02  0.13396354800E+02  0.64017835016E+02  0.00000000000E+00 0. -1.
       21    1    1    2  505  504 -0.17897935559E+03 -0.12582620994E+03  0.17231772215E+03  0.27849459995E+03  0.00000000000E+00 0. -1.
<scales pt_clust_1="13000.00000" pt_clust_2="13000.00000" pt_clust_3="61.77818" pt_clust_4="287.79342"></scales>
<clustering>
<clus scale="   61.778">  5  6 -1 -1</clus>
<clus scale="  287.793">  2  5  1 -1</clus>
<clus scale="  557.793">  1  3  2 -1</clus>
<clus scale="  557.793">  1  3  2 -1</clus>
</clustering>
</event>
<event>
 6   2  0.3464723E-02  0.4990598E+03  0.7816531E-02  0.1014025E+00
       21   -1    0    0  501  502  0.00000000000E+00  0.00000000000E+00  0.90302292107E+03  0.90302292107E+03  0.00000000000E+00 0. -1.
       21   -1    0    0  504  503  0.00000000000E+00  0.00000000000E+00 -0.79016974973E+03  0.79016974973E+03  0.00000000000E+00 0. -1.
  1000006    1    1    2  501    0 -0.33389984737E+03 -0.91704504454E+02  0.52754477375E+03  0.72159705689E+03  0.35000000000E+03 0.  0.
 -1000006    1    1    2    0  505  0.36783536571E+03  0.93209457546E+02  0.33586408889E+02  0.51731895974E+03  0.35000000000E+03 0.  0.
       21    1    1    2  504  502 -0.29676960492E+02  0.29581705523E+02 -0.27639378931E+03  0.27955200957E+03  0.00000000000E+00 0. -1.
       21    1    1    2  505  503 -0.42585578467E+01 -0.31086658615E+02 -0.17188422199E+03  0.17472464459E+03  0.00000000000E+00 0. -1.
<scales pt_clust_1="13000.00000" pt_clust_2="13000.00000" pt_clust_3="35.22549" pt_clust_4="31.37699"></scales>
<clustering>
<clus scale="   31.377">  2  6  1 -1</clus>
<clus scale="   35.225">  2  5  1 -1</clus>
<clus scale="  499.060">  1  3  2 -1</clus>
<clus scale="  499.060">  1  3  2 -1</clus>
</clustering>
</event>
<event>
 6   2  0.3464723E-02  0.5157254E+03  0.7816531E-02  0.1009754E+00
       21   -1    0    0  505  502  0.00000000000E+00  0.00000000000E+00  0.11928851338E+04  0.11928851338E+04  0.00000000000E+00 0. -1.
       21   -1    0    0  501  503  0.00000000000E+00  0.00000000000E+00 -0.36258958594E+03  0.36258958594E+03  0.00000000000E+00 0.  1.
  1000006    1    1    2  501    0  0.14369511671E+03  0.31070686038E+03  0.24296393344E+03  0.54655147297E+03  0.35000000000E+03 0.  0.
 -1000006    1    1    2    0  504 -0.38201516527E+02 -0.41736013252E+03  0.45049766307E+03  0.70788203856E+03  0.35000000000E+03 0.  0.
       21    1    1    2  504  502 -0.10269714894E+03  0.16807605087E+02  0.17482558670E+03  0.20345315370E+03  0.00000000000E+00 0. -1.
       21    1    1    2  505  503 -0.27964512482E+01  0.89845667057E+02 -0.37991635341E+02  0.97588054517E+02  0.00000000000E+00 0.  1.
<scales pt_clust_1="13000.00000" pt_clust_2="13000.00000" pt_clust_3="104.98943" pt_clust_4="89.88918"></scales>
<clustering>
<clus scale="   89.889">  2  6  1 -1</clus>
<clus scale="  104.989">  1  5  2 -1</clus>
<clus scale="  515.725">  1  4  2 -1</clus>
<clus scale="  515.725">  1  3  2 -1</clus>
</clustering>
</event>
<event>
 4   0  0.3464723E-02  0.4609910E+03  0.7816531E-02  0.1024494E+00
       21   -1    0    0  503  502  0.00000000000E+00  0.00000000000E+00  0.13587381886E+04  0.13587381886E+04  0.00000000000E+00 0. -1.
       21   -1    0    0  501  503  0.00000000000E+00  0.00000000000E+00 -0.16531844652E+03  0.16531844652E+03  0.00000000000E+00 0.  1.
  1000006    1    1    2  501    0  0.38076222846E+02  0.29759523632E+03  0.41976163148E+03  0.62346816334E+03  0.35000000000E+03 0.  0.
 -1000006    1    1    2    0  502 -0.38076222846E+02 -0.29759523632E+03  0.77365811057E+03  0.90058847177E+03  0.35000000000E+03 0.  0.
<scales pt_clust_1="13000.00000" pt_clust_2="13000.00000"></scales>
<clustering>
<clus scale="  460.991">  2  3  1 -1</clus>
<clus scale="  460.991">  1  3  2 -1</clus>
</clustering>
</event>
<event>
 4   0  0.3464723E-02  0.3539874E+03  0.7816531E-02  0.1060990E+00
       21   -1    0    0  503  502  0.00000000000E+00  0.00000000000E+00  0.34275074686E+03  0.34275074686E+03  0.00000000000E+00 0. -1.
       21   -1    0    0  501  503  0.00000000000E+00  0.00000000000E+00 -0.38263243583E+03  0.38263243583E+03  0.00000000000E+00 0. -1.
  1000006    1    1    2  501    0 -0.48219178677E+02 -0.21955020506E+02 -0.96479391365E+02  0.36689969348E+03  0.35000000000E+03 0.  0.
 -1000006    1    1    2    0  502  0.48219178677E+02  0.21955020506E+02  0.56597702394E+02  0.35848348921E+03  0.35000000000E+03 0.  0.
<scales pt_clust_1="13000.00000" pt_clust_2="13000.00000"></scales>
<clustering>
<clus scale="  353.987">  2  3  1 -1</clus>
<clus scale="  353.987">  1  3  2 -1</clus>
</clustering>
</event>
<event>
 4   0  0.3464723E-02  0.4394474E+03  0.7816531E-02  0.1030916E+00
       21   -1    0    0  501  502  0.00000000000E+00  0.00000000000E+00  0.35447737796E+03  0.35447737796E+03  0.00000000000E+00 0. -1.
       21   -1    0    0  502  503  0.00000000000E+00  0.00000000000E+00 -0.55231347830E+03  0.55231347830E+03  0.00000000000E+00 0.  1.
  1000006    1    1    2  501    0  0.14513067480E+03 -0.22260074412E+03 -0.45984112863E+02  0.44184674117E+03  0.35000000000E+03 0.  0.
 -1000006    1    1    2    0  503 -0.14513067480E+03  0.22260074412E+03 -0.15185198747E+03  0.46494411508E+03  0.35000000000E+03 0.  0.
<scales pt_clust_1="13000.00000" pt_clust_2="13000.00000"></scales>
<clustering>
<clus scale="  439.447">  1  3  2 -1</clus>
<clus scale="  439.447">  1  3  2 -1</clus>
</clustering>
</event>
<event>
 6   2  0.3464723E-02  0.7320425E+03  0.7816531E-02  0.9663952E-01
       -2   -1    0    0    0  501  0.00000000000E+00  0.00000000000E+00  0.17316217780E+04  0.17316217780E+04  0.00000000000E+00 0. -1.
        2   -1    0    0  503    0  0.00000000000E+00  0.00000000000E+00 -0.95549990116E+03  0.95549990116E+03  0.00000000000E+00 0.  1.
  1000006    1    1    2  502    0 -0.41408130150E+03  0.51469050204E+03  0.83670711992E+03  0.11220287170E+04  0.35000000000E+03 0.  0.
 -1000006    1    1    2    0  504  0.51225826597E+03 -0.41307569399E+03  0.45606544995E+02  0.74673959113E+03  0.35000000000E+03 0.  0.
       21    1    1    2  503  502 -0.63099456080E+02 -0.23547042164E+02 -0.45461280394E+03  0.45957459249E+03  0.00000000000E+00 0. -1.
       21    1    1    2  504  501 -0.35077508391E+02 -0.78067765882E+02  0.34842101590E+03  0.35877877862E+03  0.00000000000E+00 0. -1.
<scales pt_clust_1="13000.00000" pt_clust_2="13000.00000" pt_clust_3="67.34987" pt_clust_4="86.07960"></scales>
<clustering>
<clus scale="   67.350">  2  5  1 -1</clus>
<clus scale="   86.080">  1  6  2 -1</clus>
<clus scale=" 1525.239">  3  4 -1 -1</clus>
<clus scale="  732.042">  2  3  1 -1</clus>
</clustering>
</event>
<event>
 6   2  0.3464723E-02  0.3699245E+03  0.7816531E-02  0.1054722E+00
       21   -1    0    0  505  502  0.00000000000E+00  0.00000000000E+00  0.59779218776E+03  0.59779218776E+03  0.00000000000E+00 0. -1.
       21   -1    0    0  504  503  0.00000000000E+00  0.00000000000E+00 -0.32538858815E+03  0.32538858815E+03  0.00000000000E+00 0. -1.
  1000006    1    1    2  501    0 -0.98320639669E+02  0.98752453204E+02  0.10002989024E+03  0.38977554328E+03  0.35000000000E+03 0.  0.
 -1000006    1    1    2    0  502  0.68217976095E+02 -0.73354339453E+02  0.18116356729E+03  0.40663840140E+03  0.35000000000E+03 0.  0.
       21    1    1    2  504  501  0.31589701289E+02  0.51919059399E+01 -0.59477160832E+02  0.67545523726E+02  0.00000000000E+00 0. -1.
       21    1    1    2  505  503 -0.14870377144E+01 -0.30590019690E+02  0.50687302913E+02  0.59221307503E+02  0.00000000000E+00 0.  1.
<scales pt_clust_1="13000.00000" pt_clust_2="13000.00000" pt_clust_3="31.96652" pt_clust_4="30.62614"></scales>
<clustering>
<clus scale="   30.626">  1  6  2 -1</clus>
<clus scale="   31.967">  2  5  1 -1</clus>
<clus scale="  369.925">  1  4  2 -1</clus>
<clus scale="  369.925">  1  3  2 -1</clus>
</clustering>
</event>
<event>
 5   1  0.3464723E-02  0.6579921E+03  0.7816531E-02  0.9954828E-01
        2   -1    0    0  501    0  0.00000000000E+00  0.00000000000E+00  0.31396235005E+04  0.31396235005E+04  0.00000000000E+00 0.  1.
       21   -1    0    0  502  503  0.00000000000E+00  0.00000000000E+00 -0.37195445673E+03  0.37195445673E+03  0.00000000000E+00 0. -1.
  1000006    1    1    2  501    0  0.11466536451E+03  0.41470965340E+03 -0.19191948959E+02  0.55497799357E+03  0.35000000000E+03 0.  0.
 -1000006    1    1    2    0  503 -0.56634193540E+02  0.15867123204E+03  0.82551838399E+03  0.91234017453E+03  0.35000000000E+03 0.  0.
        2    1    1    2  502    0 -0.58031170965E+02 -0.57338088544E+03  0.19613426088E+04  0.20442597891E+04  0.00000000000E+00 0.  1.
<scales pt_clust_1="13000.00000" pt_clust_2="13000.00000" pt_clust_3="557.18361"></scales>
<clustering>
<clus scale="  388.438">  2  4  1 -1</clus>
<clus scale="  557.184">  1  5  2 -1</clus>
<clus scale="  657.992">  2  3  1 -1</clus>
</clustering>
</event>
<event>
 4   0  0.3464723E-02  0.3982017E+03  0.7816531E-02  0.1044404E+00
       21   -1    0    0  501  502  0.00000000000E+00  0.00000000000E+00  0.56437275003E+03  0.56437275003E+03  0.00000000000E+00 0. -1.
       21   -1    0    0  502  503  0.00000000000E+00  0.00000000000E+00 -0.61430292559E+03  0.61430292559E+03  0.00000000000E+00 0. -1.
  1000006    1    1    2  501    0 -0.10327998195E+03  0.15936689317E+03  0.40916562298E+03  0.57094751802E+03  0.35000000000E+03 0.  0.
 -1000006    1    1    2    0  503  0.10327998195E+03 -0.15936689317E+03 -0.45909579853E+03  0.60772815760E+03  0.35000000000E+03 0.  0.
<scales pt_clust_1="13000.00000" pt_clust_2="13000.00000"></scales>
<clustering>
<clus scale="  398.202">  1  3  2 -1</clus>
<clus scale="  398.202">  1  3  2 -1</clus>
</clustering>
</event>
<event>
 6   2  0.3464723E-02  0.1288614E+04  0.7816531E-02  0.9038644E-01
       -2   -1    0    0    0  501  0.00000000000E+00  0.00000000000E+00  0.98554617594E+03  0.98554617594E+03  0.00000000000E+00 0. -1.
        2   -1    0    0  503    0  0.00000000000E+00  0.00000000000E+00 -0.22525132265E+04  0.22525132265E+04  0.00000000000E+00 0.  1.
  1000006    1    1    2  502    0 -0.11951219278E+04  0.11500677354E+03 -0.89692549755E+02  0.12538292283E+04  0.35000000000E+03 0.  0.
 -1000006    1    1    2    0  504  0.12631022674E+04 -0.19117260592E+03 -0.79702494275E+03  0.15458729128E+04  0.35000000000E+03 0.  0.
       21    1    1    2  503  502 -0.17091038077E+02  0.11060871317E+03 -0.35446967186E+03  0.37171916722E+03  0.00000000000E+00 0.  1.
       21    1    1    2  504  501 -0.50889301570E+02 -0.34442880801E+02 -0.25779886158E+02  0.66638094079E+02  0.00000000000E+00 0.  1.
<scales pt_clust_1="13000.00000" pt_clust_2="13000.00000" pt_clust_3="111.68772" pt_clust_4="61.44943"></scales>
<clustering>
<clus scale="   61.449">  1  6  2 -1</clus>
<clus scale="  111.688">  2  5  1 -1</clus>
<clus scale=" 2583.436">  3  4 -1 -1</clus>
<clus scale=" 1288.614">  2  3  1 -1</clus>
</clustering>
</event>
<event>
 5   1  0.3464723E-02  0.4096376E+03  0.7816531E-02  0.1040493E+00
       21   -1    0    0  501  502  0.00000000000E+00  0.00000000000E+00  0.14104557163E+04  0.14104557163E+04  0.00000000000E+00 0.  1.
       21   -1    0    0  504  503  0.00000000000E+00  0.00000000000E+00 -0.16115184475E+03  0.16115184475E+03  0.00000000000E+00 0.  1.
  1000006    1    1    2  501    0 -0.19346456235E+03  0.12829654483E+03  0.51288846431E+03  0.66290505891E+03  0.35000000000E+03 0.  0.
 -1000006    1    1    2    0  503  0.16091075182E+03 -0.11426496233E+03  0.38824902635E+03  0.55873612568E+03  0.35000000000E+03 0.  0.
       21    1    1    2  504  502  0.32553810528E+02 -0.14031582494E+02  0.34816638093E+03  0.34996637652E+03  0.00000000000E+00 0.  1.
<scales pt_clust_1="13000.00000" pt_clust_2="13000.00000" pt_clust_3="35.44906"></scales>
<clustering>
<clus scale="   35.449">  1  5  2 -1</clus>
<clus scale="  409.638">  1  3  2 -1</clus>
<clus scale="  409.638">  1  3  2 -1</clus>
</clustering>
</event>
<event>
 6   2  0.3464723E-02  0.4975325E+03  0.7816531E-02  0.1014425E+00
       21   -1    0    0  501  503  0.00000000000E+00  0.00000000000E+00  0.13616256645E+04  0.13616256645E+04  0.00000000000E+00 0. -1.
        1   -1    0    0  504    0  0.00000000000E+00  0.00000000000E+00 -0.71332985489E+03  0.71332985489E+03  0.00000000000E+00 0. -1.
  1000006    1    1    2  501    0  0.27124231267E+03 -0.35213861448E+03  0.53982390769E+03  0.78197432650E+03  0.35000000000E+03 0.  0.
 -1000006    1    1    2    0  502  0.27961318382E+03  0.34999180085E+03  0.31135008292E+03  0.64816407442E+03  0.35000000000E+03 0.  0.
       21    1    1    2  504  503 -0.15653786521E+03 -0.56184649587E+02  0.48893667170E+02  0.17335342161E+03  0.00000000000E+00 0.  1.
        1    1    1    2  502    0 -0.39431763128E+03  0.58331463223E+02 -0.25177184816E+03  0.47146369687E+03  0.00000000000E+00 0. -1.
<scales pt_clust_1="13000.00000" pt_clust_2="13000.00000" pt_clust_3="166.31542" pt_clust_4="482.02192"></scales>
<clustering>
<clus scale="  166.315">  2  5  1 -1</clus>
<clus scale="  482.022">  2  6  1 -1</clus>
<clus scale="  497.533">  1  3  2 -1</clus>
<clus scale="  497.533">  1  3  2 -1</clus>
</clustering>
</event>
<event>
 5   1  0.3464723E-02  0.4818812E+03  0.7816531E-02  0.1018619E+00
       21   -1    0    0  504  502  0.00000000000E+00  0.00000000000E+00  0.12615074620E+04  0.12615074620E+04  0.00000000000E+00 0. -1.
       21   -1    0    0  501  503  0.00000000000E+00  0.00000000000E+00 -0.25226767415E+03  0.25226767415E+03  0.00000000000E+00 0.  1.
  1000006    1    1    2  501    0  0.23684914308E+03  0.16519329255E+03  0.16945267041E+03  0.48435580722E+03  0.35000000000E+03 0.  0.
 -1000006    1    1    2    0  502 -0.29145293639E+03 -0.19304935673E+03  0.83155194069E+03  0.96756989325E+03  0.35000000000E+03 0.  0.
       21    1    1    2  504  503  0.54603793312E+02  0.27856064180E+02  0.82351767346E+01  0.61849435660E+02  0.00000000000E+00 0. -1.
<scales pt_clust_1="13000.00000" pt_clust_2="13000.00000" pt_clust_3="61.29873"></scales>
<clustering>
<clus scale="   61.299">  2  5  1 -1</clus>
<clus scale="  481.881">  1  4  2 -1</clus>
<clus scale="  481.881">  1  3  2 -1</clus>
</clustering>
</event>
<event>
 5   1  0.3464723E-02  0.3524780E+03  0.7816531E-02  0.1061603E+00
       21   -1    0    0  501  502  0.00000000000E+00  0.00000000000E+00  0.19229281011E+04  0.19229281011E+04  0.00000000000E+00 0.  1.
       21   -1    0    0  504  503  0.00000000000E+00  0.00000000000E+00 -0.71465941775E+02  0.71465941775E+02  0.00000000000E+00 0.  1.
  1000006    1    1    2  501    0 -0.46006958091E+02  0.37941012348E+02  0.93957738627E+03  0.10044211395E+04  0.35000000000E+03 0.  0.
 -1000006    1    1    2    0  503  0.17561056756E+02 -0.19430736237E+02  0.81690214970E+03  0.88910914201E+03  0.35000000000E+03 0.  0.
       21    1    1    2  504  502  0.28445901335E+02 -0.18510276111E+02  0.94982623369E+02  0.10086376141E+03  0.00000000000E+00 0.  1.
<scales pt_clust_1="13000.00000" pt_clust_2="13000.00000" pt_clust_3="33.93817"></scales>
<clustering>
<clus scale="   33.938">  1  5  2 -1</clus>
<clus scale="  352.478">  1  3  2 -1</clus>
<clus scale="  352.478">  1  3  2 -1</clus>
</clustering>
</event>
<event>
 5   1  0.3464723E-02  0.3795961E+03  0.7816531E-02  0.1051083E+00
       21   -1    0    0  501  502  0.00000000000E+00  0.00000000000E+00  0.70429166589E+03  0.70429166589E+03  0.00000000000E+00 0.  1.
       21   -1    0    0  504  503  0.00000000000E+00  0.00000000000E+00 -0.56923553604E+03  0.56923553604E+03  0.00000000000E+00 0.  1.
  1000006    1    1    2  501    0 -0.12547618162E+03 -0.66524304133E+02  0.54981122194E+03  0.66705482156E+03  0.35000000000E+03 0.  0.
 -1000006    1    1    2    0  503  0.16217552636E+03  0.91997246960E+02 -0.38558616872E+03  0.55311941596E+03  0.35000000000E+03 0.  0.
       21    1    1    2  504  502 -0.36699344738E+02 -0.25472942827E+02 -0.29168923376E+02  0.53352964411E+02  0.00000000000E+00 0.  1.
<scales pt_clust_1="13000.00000" pt_clust_2="13000.00000" pt_clust_3="44.67340"></scales>
<clustering>
<clus scale="   44.673">  2  5  1 -1</clus>
<clus scale="  379.596">  1  3  2 -1</clus>
<clus scale="  379.596">  1  3  2 -1</clus>
</clustering>
</event>
<event>
 6   2  0.3464723E-02  0.3738195E+03  0.7816531E-02  0.1053242E+00
       21   -1    0    0  505  502  0.00000000000E+00  0.00000000000E+00  0.80987831393E+03  0.80987831393E+03  0.00000000000E+00 0.  1.
       21   -1    0    0  504  503  0.00000000000E+00  0.00000000000E+00 -0.16900504019E+04  0.16900504019E+04  0.00000000000E+00 0.  1.
  1000006    1    1    2  501    0 -0.11129501593E+03 -0.69769514972E+02  0.21655157308E+03  0.43202887588E+03  0.35000000000E+03 0.  0.
 -1000006    1    1    2    0  502  0.12373388439E+03 -0.16157076636E+03  0.37538809443E+03  0.55211539385E+03  0.35000000000E+03 0.  0.
       21    1    1    2  504  501 -0.39649354334E+01 -0.47606943467E+02 -0.61724314166E+02  0.78051474929E+02  0.00000000000E+00 0. -1.
       21    1    1    2  505  503 -0.84739330293E+01  0.27894722480E+03 -0.14103874413E+04  0.14377329711E+04  0.00000000000E+00 0.  1.
<scales pt_clust_1="13000.00000" pt_clust_2="13000.00000" pt_clust_3="47.77177" pt_clust_4="237.40396"></scales>
<clustering>
<clus scale="   47.772">  2  5  1 -1</clus>
<clus scale="  237.404">  2  6  1 -1</clus>
<clus scale="  373.820">  2  3  1 -1</clus>
<clus scale="  373.820">  1  3  2 -1</clus>
</clustering>
</event>
<event>
 5   1  0.3464723E-02  0.3691178E+03  0.7816531E-02  0.1055031E+00
       21   -1    0    0  504  502  0.00000000000E+00  0.00000000000E+00  0.27494202008E+03  0.27494202008E+03  0.00000000000E+00 0.  1.
       21   -1    0    0  501  503  0.00000000000E+00  0.00000000000E+00 -0.13594487814E+04  0.13594487814E+04  0.00000000000E+00 0.  1.
  1000006    1    1    2  501    0 -0.21483777503E+03  0.94425360415E+02 -0.19585486522E+03  0.46468327547E+03  0.35000000000E+03 0.  0.
 -1000006    1    1    2    0  502  0.40555677330E+02  0.45835667683E+02 -0.12933045524E+03  0.37811643451E+03  0.35000000000E+03 0.  0.
       21    1    1    2  504  503  0.17428209770E+03 -0.14026102810E+03 -0.75932144088E+03  0.79159109151E+03  0.00000000000E+00 0.  1.
<scales pt_clust_1="13000.00000" pt_clust_2="13000.00000" pt_clust_3="223.71277"></scales>
<clustering>
<clus scale="  223.713">  2  5  1 -1</clus>
<clus scale="  369.118">  2  3  1 -1</clus>
<clus scale="  369.118">  1  3  2 -1</clus>
</clustering>
</event>
<event>
 5   1  0.3464723E-02  0.3719029E+03  0.7816531E-02  0.1053968E+00
       21   -1    0    0  501  502  0.00000000000E+00  0.00000000000E+00  0.72181775707E+03  0.72181775707E+03  0.00000000000E+00 0. -1.
       21   -1    0    0  502  503  0.00000000000E+00  0.00000000000E+00 -0.27427678183E+03  0.27427678183E+03  0.00000000000E+00 0. -1.
  1000006    1    1    2  501    0  0.71004693618E+02 -0.96095232177E+02  0.43826899540E+03  0.57345939045E+03  0.35000000000E+03 0.  0.
 -1000006    1    1    2    0  504 -0.10477828665E+03  0.97812949009E+02  0.35446872411E+02  0.37987148236E+03  0.35000000000E+03 0.  0.
       21    1    1    2  504  503  0.33773593029E+02 -0.17177168319E+01 -0.26174892569E+02  0.42763666099E+02  0.00000000000E+00 0.  1.
<scales pt_clust_1="13000.00000" pt_clust_2="13000.00000" pt_clust_3="33.81725"></scales>
<clustering>
<clus scale="   33.817">  2  5  1 -1</clus>
<clus scale="  371.903">  1  3  2 -1</clus>
<clus scale="  371.903">  1  3  2 -1</clus>
</clustering>
</event>
<event>
 5   1  0.3464723E-02  0.3777569E+03  0.7816531E-02  0.1051766E+00
       21   -1    0    0  504  502  0.00000000000E+00  0.00000000000E+00  0.12381915493E+03  0.12381915493E+03  0.00000000000E+00 0.  1.
       21   -1    0    0  501  503  0.00000000000E+00  0.00000000000E+00 -0.18392068836E+04  0.18392068836E+04  0.00000000000E+00 0.  1.
  1000006    1    1    2  501    0  0.42177376358E+02  0.15715909992E+03 -0.82761044167E+03  0.91319053704E+03  0.35000000000E+03 0.  0.
 -1000006    1    1    2    0  502 -0.43334480781E+02 -0.12466623103E+03 -0.35381130675E+03  0.51488055621E+03  0.35000000000E+03 0.  0.
       21    1    1    2  504  503  0.11571044237E+01 -0.32492868894E+02 -0.53396598029E+03  0.53495494533E+03  0.00000000000E+00 0.  1.
<scales pt_clust_1="13000.00000" pt_clust_2="13000.00000" pt_clust_3="32.51347"></scales>
<clustering>
<clus scale="   32.513">  2  5  1 -1</clus>
<clus scale="  377.757">  1  4  2 -1</clus>
<clus scale="  377.757">  1  3  2 -1</clus>
</clustering>
</event>
<event>
 6   2  0.3464723E-02  0.9208861E+03  0.7816531E-02  0.9399843E-01
       21   -1    0    0  501  503  0.00000000000E+00  0.00000000000E+00  0.11244797184E+04  0.11244797184E+04  0.00000000000E+00 0.  1.
        2   -1    0    0  504    0  0.00000000000E+00  0.00000000000E+00 -0.33845576810E+04  0.33845576810E+04  0.00000000000E+00 0. -1.
  1000006    1    1    2  501    0  0.58576149469E+03  0.57370715898E+03  0.55959991280E+03  0.10525723231E+04  0.35000000000E+03 0.  0.
 -1000006    1    1    2    0  502 -0.59024381558E+03 -0.76889730136E+03 -0.54245887114E+03  0.11646254543E+04  0.35000000000E+03 0.  0.
       21    1    1    2  504  503 -0.61251698725E+02  0.20452421386E+02 -0.37901225642E+03  0.38447413783E+03  0.00000000000E+00 0. -1.
        2    1    1    2  502    0  0.65734019613E+02  0.17473772100E+03 -0.18982067479E+04  0.19073654842E+04  0.00000000000E+00 0. -1.
<scales pt_clust_1="13000.00000" pt_clust_2="13000.00000" pt_clust_3="64.57610" pt_clust_4="189.61851"></scales>
<clustering>
<clus scale="   64.576">  2  5  1 -1</clus>
<clus scale="  189.619">  2  6  1 -1</clus>
<clus scale="  920.886">  2  4  1 -1</clus>
<clus scale="  920.886">  1  3  2 -1</clus>
</clustering>
</event>
<event>
 4   0  0.3464723E-02  0.4850858E+03  0.7816531E-02  0.1017747E+00
       21   -1    0    0  503  502  0.00000000000E+00  0.00000000000E+00  0.10165298107E+04  0.10165298107E+04  0.00000000000E+00 0. -1.
       21   -1    0    0  501  503  0.00000000000E+00  0.00000000000E+00 -0.26159450067E+03  0.26159450067E+03  0.00000000000E+00 0. -1.
  1000006    1    1    2  501    0 -0.33370163601E+03 -0.38097731896E+02  0.16064574734E+03  0.51099439840E+03  0.35000000000E+03 0.  0.
 -1000006    1    1    2    0  502  0.33370163601E+03  0.38097731896E+02  0.59428956272E+03  0.76712991299E+03  0.35000000000E+03 0.  0.
<scales pt_clust_1="13000.00000" pt_clust_2="13000.00000"></scales>
<clustering>
<clus scale="  485.086">  2  3  1 -1</clus>
<clus scale="  485.086">  1  3  2 -1</clus>
</clustering>
</event>
<event>
 6   2  0.3464723E-02  0.3569805E+03  0.7816531E-02  0.1059786E+00
       21   -1    0    0  501  502  0.00000000000E+00  0.00000000000E+00  0.15986030060E+04  0.15986030060E+04  0.00000000000E+00 0. -1.
       21   -1    0    0  505  503  0.00000000000E+00  0.00000000000E+00 -0.52837123019E+03  0.52837123019E+03  0.00000000000E+00 0. -1.
  1000006    1    1    2  501    0  0.94822980457E+02 -0.85409560660E+02  0.43747930884E+03  0.57460798492E+03  0.35000000000E+03 0.  0.
 -1000006    1    1    2    0  503 -0.35806421476E+01  0.41351904413E+02 -0.15570896727E+03  0.38531556351E+03  0.35000000000E+03 0.  0.
       21    1    1    2  504  502 -0.60744150632E+02  0.30249457244E+02  0.97508733517E+03  0.97744574924E+03  0.00000000000E+00 0. -1.
       21    1    1    2  505  504 -0.30498187677E+02  0.13808199003E+02 -0.18662590092E+03  0.18960493851E+03  0.00000000000E+00 0.  1.
<scales pt_clust_1="13000.00000" pt_clust_2="13000.00000" pt_clust_3="67.97522" pt_clust_4="33.47844"></scales>
<clustering>
<clus scale="   33.478">  2  6  1 -1</clus>
<clus scale="   67.975">  1  5  2 -1</clus>
<clus scale="  356.980">  1  3  2 -1</clus>
<clus scale="  356.980">  1  3  2 -1</clus>
</clustering>
</event>
<event>
 4   0  0.3464723E-02  0.3825603E+03  0.7816531E-02  0.1049992E+00
       21   -1    0    0  501  502  0.00000000000E+00  0.00000000000E+00  0.55701496012E+03  0.55701496012E+03  0.00000000000E+00 0.  1.
       21   -1    0    0  502  503  0.00000000000E+00  0.00000000000E+00 -0.42509766380E+03  0.42509766380E+03  0.00000000000E+00 0.  1.
  1000006    1    1    2  501    0  0.10713895372E+03 -0.11123668535E+03  0.36943017166E+03  0.53181858495E+03  0.35000000000E+03 0.  0.
 -1000006    1    1    2    0  503 -0.10713895372E+03  0.11123668535E+03 -0.23751287534E+03  0.45029403896E+03  0.35000000000E+03 0.  0.
<scales pt_clust_1="13000.00000" pt_clust_2="13000.00000"></scales>
<clustering>
<clus scale="  382.560">  1  3  2 -1</clus>
<clus scale="  382.560">  1  3  2 -1</clus>
</clustering>
</event>
<event>
 5   1  0.3464723E-02  0.3762541E+03  0.7816531E-02  0.1052327E+00
       21   -1    0    0  504  502  0.00000000000E+00  0.00000000000E+00  0.66606109716E+03  0.66606109716E+03  0.00000000000E+00 0. -1.
       21   -1    0    0  501  503  0.00000000000E+00  0.00000000000E+00 -0.35876229592E+03  0.35876229592E+03  0.00000000000E+00 0. -1.
  1000006    1    1    2  501    0 -0.95430902841E+02  0.11311175991E+03 -0.14672381463E+03  0.40734408701E+03  0.35000000000E+03 0.  0.
 -1000006    1    1    2    0  502  0.63536424121E+02 -0.83996606017E+02  0.35535087263E+03  0.50977107577E+03  0.35000000000E+03 0.  0.
       21    1    1    2  504  503  0.31894478720E+02 -0.29115153895E+02  0.98671743239E+02  0.10770823029E+03  0.00000000000E+00 0.  1.
<scales pt_clust_1="13000.00000" pt_clust_2="13000.00000" pt_clust_3="43.18507"></scales>
<clustering>
<clus scale="   43.185">  1  5  2 -1</clus>
<clus scale="  376.254">  2  3  1 -1</clus>
<clus scale="  376.254">  1  3  2 -1</clus>
</clustering>
</event>
<event>
 5   1  0.3464723E-02  0.3589749E+03  0.7816531E-02  0.1058990E+00
        2   -1    0    0  503    0  0.00000000000E+00  0.00000000000E+00  0.67655525323E+03  0.67655525323E+03  0.00000000000E+00 0. -1.
       21   -1    0    0  501  503  0.00000000000E+00  0.00000000000E+00 -0.46297959874E+03  0.46297959874E+03  0.00000000000E+00 0. -1.
  1000006    1    1    2  501    0 -0.50735714993E+02 -0.23036437943E+02 -0.21317072663E+03  0.41357774232E+03  0.35000000000E+03 0.  0.
 -1000006    1    1    2    0  502  0.50177805216E+02  0.19041905822E+03  0.21335414101E+03  0.45474962271E+03  0.35000000000E+03 0.  0.
        2    1    1    2  502    0  0.55790977676E+00 -0.16738262028E+03  0.21339224010E+03  0.27120748694E+03  0.00000000000E+00 0. -1.
<scales pt_clust_1="13000.00000" pt_clust_2="13000.00000" pt_clust_3="167.38355"></scales>
<clustering>
<clus scale="  167.384">  1  5  2 -1</clus>
<clus scale="  358.975">  2  3  1 -1</clus>
<clus scale="  358.975">  2  3  1 -1</clus>
</clustering>
</event>
<event>
 5   1  0.3464723E-02  0.3880990E+03  0.7816531E-02  0.1047980E+00
       21   -1    0    0  501  502  0.00000000000E+00  0.00000000000E+00  0.13660040160E+04  0.13660040160E+04  0.00000000000E+00 0.  1.
       21   -1    0    0  504  503  0.00000000000E+00  0.00000000000E+00 -0.12415803552E+03  0.12415803552E+03  0.00000000000E+00 0.  1.
  1000006    1    1    2  501    0  0.14260105343E+03 -0.99317373478E+02  0.66130301561E+03  0.76812803592E+03  0.35000000000E+03 0.  0.
 -1000006    1    1    2    0  503 -0.11100103669E+03  0.12176134384E+03  0.49589924921E+03  0.62893808946E+03  0.35000000000E+03 0.  0.
       21    1    1    2  504  502 -0.31600016742E+02 -0.22443970364E+02  0.84643715617E+02  0.93095926104E+02  0.00000000000E+00 0.  1.
<scales pt_clust_1="13000.00000" pt_clust_2="13000.00000" pt_clust_3="38.75942"></scales>
<clustering>
<clus scale="   38.759">  1  5  2 -1</clus>
<clus scale="  388.099">  1  3  2 -1</clus>
<clus scale="  388.099">  1  3  2 -1</clus>
</clustering>
</event>
<event>
 5   1  0.3464723E-02  0.5237955E+03  0.7816531E-02  0.1007748E+00
       21   -1    0    0  501  502  0.00000000000E+00  0.00000000000E+00  0.70773419773E+03  0.70773419773E+03  0.00000000000E+00 0. -1.
       21   -1    0    0  504  503  0.00000000000E+00  0.00000000000E+00 -0.92676007820E+03  0.92676007820E+03  0.00000000000E+00 0. -1.
  1000006    1    1    2  501    0  0.37893667377E+03 -0.10636489558E+03  0.47008460447E+03  0.70596460896E+03  0.35000000000E+03 0.  0.
 -1000006    1    1    2    0  503 -0.35096458809E+03  0.12404368841E+03 -0.43141004084E+03  0.66871339306E+03  0.35000000000E+03 0.  0.
       21    1    1    2  504  502 -0.27972085673E+02 -0.17678792824E+02 -0.25770044411E+03  0.25981627391E+03  0.00000000000E+00 0.  1.
<scales pt_clust_1="13000.00000" pt_clust_2="13000.00000" pt_clust_3="33.09044"></scales>
<clustering>
<clus scale="   33.090">  2  5  1 -1</clus>
<clus scale="  523.796">  1  3  2 -1</clus>
<clus scale="  523.796">  1  3  2 -1</clus>
</clustering>
</event>
<event>
 6   2  0.3464723E-02  0.4316270E+03  0.7816531E-02  0.1033347E+00
       21   -1    0    0  505  502  0.00000000000E+00  0.00000000000E+00  0.12935228910E+04  0.12935228910E+04  0.00000000000E+00 0. -1.
       21   -1    0    0  501  503  0.00000000000E+00  0.00000000000E+00 -0.59469465581E+03  0.59469465581E+03  0.00000000000E+00 0. -1.
  1000006    1    1    2  501    0  0.25612135641E+03  0.38793598851E+01  0.25762179452E+03  0.50446227575E+03  0.35000000000E+03 0.  0.
 -1000006    1    1    2    0  502 -0.18331239579E+03 -0.19124266507E+03  0.78699083676E+03  0.90112805335E+03  0.35000000000E+03 0.  0.
       21    1    1    2  504  503 -0.30964549352E+02  0.16746869157E+03 -0.38560105404E+03  0.42153616553E+03  0.00000000000E+00 0. -1.
       21    1    1    2  505  504 -0.41844411263E+02  0.19894613614E+02  0.39816657974E+02  0.61091052185E+02  0.00000000000E+00 0. -1.
<scales pt_clust_1="13000.00000" pt_clust_2="13000.00000" pt_clust_3="170.70087" pt_clust_4="46.33304"></scales>
<clustering>
<clus scale="   46.333">  1  6  2 -1</clus>
<clus scale="  170.701">  2  5  1 -1</clus>
<clus scale="  431.627">  1  4  2 -1</clus>
<clus scale="  431.627">  1  3  2 -1</clus>
</clustering>
</event>
<event>
 4   0  0.3464723E-02  0.3554107E+03  0.7816531E-02  0.1060416E+00
       21   -1    0    0  503  502  0.00000000000E+00  0.00000000000E+00  0.24454810278E+04  0.24454810278E+04  0.00000000000E+00 0.  1.
       21   -1    0    0  501  503  0.00000000000E+00  0.00000000000E+00 -0.51750824310E+02  0.51750824310E+02  0.00000000000E+00 0.  1.
  1000006    1    1    2  501    0  0.61685719422E+02  0.34078703889E+01  0.11426135665E+04  0.11966129299E+04  0.35000000000E+03 0.  0.
 -1000006    1    1    2    0  502 -0.61685719422E+02 -0.34078703889E+01  0.12511166370E+04  0.13006189223E+04  0.35000000000E+03 0.  0.
<scales pt_clust_1="13000.00000" pt_clust_2="13000.00000"></scales>
<clustering>
<clus scale="  355.411">  2  3  1 -1</clus>
<clus scale="  355.411">  1  3  2 -1</clus>
</clustering>
</event>
<event>
 5   1  0.3464723E-02  0.5255369E+03  0.7816531E-02  0.1007320E+00
       21   -1    0    0  504  502  0.00000000000E+00  0.00000000000E+00  0.13912130252E+04  0.13912130252E+04  0.00000000000E+00 0. -1.
       21   -1    0    0  502  503  0.00000000000E+00  0.00000000000E+00 -0.23505338464E+03  0.23505338464E+03  0.00000000000E+00 0.  1.
  1000006    1    1    2  501    0 -0.20792671952E+03  0.36194522063E+03  0.63187124127E+03  0.83426562255E+03  0.35000000000E+03 0.  0.
 -1000006    1    1    2    0  503  0.22165983791E+03 -0.30264962536E+03  0.38966685848E+03  0.64425937329E+03  0.35000000000E+03 0.  0.
       21    1    1    2  504  501 -0.13733118386E+02 -0.59295595265E+02  0.13462154076E+03  0.14774141395E+03  0.00000000000E+00 0. -1.
<scales pt_clust_1="13000.00000" pt_clust_2="13000.00000" pt_clust_3="60.86515"></scales>
<clustering>
<clus scale="   60.865">  1  5  2 -1</clus>
<clus scale="  525.537">  1  3  2 -1</clus>
<clus scale="  525.537">  1  3  2 -1</clus>
</clustering>
</event>
<event>
 4   0  0.3464723E-02  0.4166943E+03  0.7816531E-02  0.1038148E+00
       21   -1    0    0  503  502  0.00000000000E+00  0.00000000000E+00  0.85666937364E+03  0.85666937364E+03  0.00000000000E+00 0. -1.
       21   -1    0    0  501  503  0.00000000000E+00  0.00000000000E+00 -0.20723042354E+03  0.20723042354E+03  0.00000000000E+00 0. -1.
  1000006    1    1    2  501    0 -0.16502214540E+03 -0.15460223223E+03  0.24593800393E+03  0.48385913287E+03  0.35000000000E+03 0.  0.
 -1000006    1    1    2    0  502  0.16502214540E+03  0.15460223223E+03  0.40350094617E+03  0.58004066431E+03  0.35000000000E+03 0.  0.
<scales pt_clust_1="13000.00000" pt_clust_2="13000.00000"></scales>
<clustering>
<clus scale="  416.694">  2  3  1 -1</clus>
<clus scale="  416.694">  1  3  2 -1</clus>
</clustering>
</event>
<event>
 6   2  0.3464723E-02  0.4487911E+03  0.7816531E-02  0.1028083E+00
        2   -1    0    0  504    0  0.00000000000E+00  0.00000000000E+00  0.18932755233E+04  0.18932755233E+04  0.00000000000E+00 0. -1.
       21   -1    0    0  502  503  0.00000000000E+00  0.00000000000E+00 -0.22096484487E+04  0.22096484487E+04  0.00000000000E+00 0. -1.
  1000006    1    1    2  501    0 -0.45335129350E+02  0.37654045653E+03 -0.59187738628E+03  0.78527500263E+03  0.35000000000E+03 0.  0.
 -1000006    1    1    2    0  503 -0.27409217366E+03 -0.14774848208E+03 -0.14047328475E+04  0.14807871239E+04  0.35000000000E+03 0.  0.
       21    1    1    2  504  501 -0.84326052140E+02  0.90447536901E+01  0.10400392688E+04  0.10434914333E+04  0.00000000000E+00 0. -1.
        2    1    1    2  502    0  0.40375335515E+03 -0.23783672814E+03  0.64019803957E+03  0.79337041218E+03  0.00000000000E+00 0. -1.
<scales pt_clust_1="13000.00000" pt_clust_2="13000.00000" pt_clust_3="84.80973" pt_clust_4="404.64565"></scales>
<clustering>
<clus scale="   84.810">  1  5  2 -1</clus>
<clus scale="  404.646">  1  6  2 -1</clus>
<clus scale="  448.791">  2  4  1 -1</clus>
<clus scale="  448.791">  2  3  1 -1</clus>
</clustering>
</event>
<event>
 4   0  0.3464723E-02  0.5909158E+03  0.7816531E-02  0.9924434E-01
       21   -1    0    0  503  502  0.00000000000E+00  0.00000000000E+00  0.40216318935E+03  0.40216318935E+03  0.00000000000E+00 0. -1.
       21   -1    0    0  501  503  0.00000000000E+00  0.00000000000E+00 -0.87693087602E+03  0.87693087602E+03  0.00000000000E+00 0.  1.
  1000006    1    1    2  501    0  0.26305724163E+03  0.39684046833E+03 -0.30098535541E+03  0.66315432129E+03  0.35000000000E+03 0.  0.
 -1000006    1    1    2    0  502 -0.26305724163E+03 -0.39684046833E+03 -0.17378233125E+03  0.61593974408E+03  0.35000000000E+03 0.  0.
<scales pt_clust_1="13000.00000" pt_clust_2="13000.00000"></scales>
<clustering>
<clus scale="  590.916">  2  3  1 -1</clus>
<clus scale="  590.916">  1  3  2 -1</clus>
</clustering>
</event>
<event>
 6   2  0.3464723E-02  0.3888093E+03  0.7816531E-02  0.1047725E+00
       21   -1    0    0  504  502  0.00000000000E+00  0.00000000000E+00  0.15394299854E+03  0.15394299854E+03  0.00000000000E+00 0. -1.
       21   -1    0    0  505  503  0.00000000000E+00  0.00000000000E+00 -0.17288770267E+04  0.17288770267E+04  0.00000000000E+00 0. -1.
  1000006    1    1    2  501    0  0.79904140640E+02 -0.33585595465E+02 -0.49850898926E+03  0.61524294087E+03  0.35000000000E+03 0.  0.
 -1000006    1    1    2    0  503 -0.23043492706E+03  0.23776532905E+02 -0.99391453568E+03  0.10789030000E+04  0.35000000000E+03 0.  0.
       21    1    1    2  504  501  0.28622688053E+02  0.30871530692E+02 -0.39410514954E+02  0.57667134206E+02  0.00000000000E+00 0. -1.
       21    1    1    2  505  502  0.12190809837E+03 -0.21062468132E+02 -0.43099988274E+02  0.13100695020E+03  0.00000000000E+00 0. -1.
<scales pt_clust_1="13000.00000" pt_clust_2="13000.00000" pt_clust_3="42.09881" pt_clust_4="131.11790"></scales>
<clustering>
<clus scale="   42.099">  1  5  2 -1</clus>
<clus scale="  131.118">  1  6  2 -1</clus>
<clus scale="  388.809">  2  4  1 -1</clus>
<clus scale="  388.809">  1  3  2 -1</clus>
</clustering>
</event>
<event>
 5   1  0.3464723E-02  0.3637837E+03  0.7816531E-02  0.1057096E+00
       21   -1    0    0  501  503  0.00000000000E+00  0.00000000000E+00  0.24193795597E+03  0.24193795597E+03  0.00000000000E+00 0.  1.
        2   -1    0    0  503    0  0.00000000000E+00  0.00000000000E+00 -0.97939408423E+03  0.97939408423E+03  0.00000000000E+00 0. -1.
  1000006    1    1    2  501    0 -0.22865798144E+02  0.84968277029E+02 -0.78884572819E+02  0.36941200394E+03  0.35000000000E+03 0.  0.
 -1000006    1    1    2    0  502 -0.87267955922E+02 -0.12223351040E+03 -0.33194524313E+03  0.50521715295E+03  0.35000000000E+03 0.  0.
        2    1    1    2  502    0  0.11013375407E+03  0.37265233368E+02 -0.32662631231E+03  0.34670288331E+03  0.00000000000E+00 0. -1.
<scales pt_clust_1="13000.00000" pt_clust_2="13000.00000" pt_clust_3="116.26754"></scales>
<clustering>
<clus scale="  116.268">  2  5  1 -1</clus>
<clus scale="  363.784">  1  3  2 -1</clus>
<clus scale="  363.784">  1  3  2 -1</clus>
</clustering>
</event>
<event>
 6   2  0.3464723E-02  0.3744856E+03  0.7816531E-02  0.1052991E+00
       21   -1    0    0  501  503  0.00000000000E+00  0.00000000000E+00  0.30309798464E+03  0.30309798464E+03  0.00000000000E+00 0.  1.
        1   -1    0    0  504    0  0.00000000000E+00  0.00000000000E+00 -0.15518295505E+04  0.15518295505E+04  0.00000000000E+00 0.  1.
  1000006    1    1    2  501    0  0.41645818015E+02 -0.86393975586E+02 -0.13584389466E+02  0.36315675515E+03  0.35000000000E+03 0.  0.
 -1000006    1    1    2    0  502  0.54618740855E+02  0.34514437949E+03 -0.84204266520E+03  0.97654682405E+03  0.35000000000E+03 0.  0.
       21    1    1    2  504  503  0.39955146817E+02 -0.43645233402E+02 -0.15781598994E+03  0.16854437646E+03  0.00000000000E+00 0.  1.
        1    1    1    2  502    0 -0.13621970569E+03 -0.21510517050E+03 -0.23528852125E+03  0.34667957948E+03  0.00000000000E+00 0.  1.
<scales pt_clust_1="13000.00000" pt_clust_2="13000.00000" pt_clust_3="59.17195" pt_clust_4="258.13438"></scales>
<clustering>
<clus scale="   59.172">  2  5  1 -1</clus>
<clus scale="  258.134">  2  6  1 -1</clus>
<clus scale="  374.486">  1  3  2 -1</clus>
<clus scale="  374.486">  1  3  2 -1</clus>
</clustering>
</event>
<event>
 6   2  0.3464723E-02  0.6947308E+03  0.7816531E-02  0.9726286E-01
       21   -1    0    0  504  502  0.00000000000E+00  0.00000000000E+00  0.14397224299E+04  0.14397224299E+04  0.00000000000E+00 0.  1.
       21   -1    0    0  505  503  0.00000000000E+00  0.00000000000E+00 -0.41060577081E+03  0.41060577081E+03  0.00000000000E+00 0. -1.
  1000006    1    1    2  501    0  0.59438639245E+03  0.98632025272E+02  0.67727727945E+03  0.97171393589E+03  0.35000000000E+03 0.  0.
 -1000006    1    1    2    0  503 -0.60465212286E+03 -0.80088026682E+02  0.34090393568E+03  0.78149457776E+03  0.35000000000E+03 0.  0.
       21    1    1    2  504  501 -0.21188409365E+02 -0.31865975735E+02  0.37704212170E+02  0.53721473512E+02  0.00000000000E+00 0.  1.
       21    1    1    2  505  502  0.31454139780E+02  0.13321977145E+02 -0.26768768246E+02  0.43398213532E+02  0.00000000000E+00 0.  1.
<scales pt_clust_1="13000.00000" pt_clust_2="13000.00000" pt_clust_3="37.66146" pt_clust_4="34.15901"></scales>
<clustering>
<clus scale="   34.159">  2  6  1 -1</clus>
<clus scale="   37.661">  1  5  2 -1</clus>
<clus scale="  694.731">  1  3  2 -1</clus>
<clus scale="  694.731">  1  3  2 -1</clus>
</clustering>
</event>
<event>
 5   1  0.3464723E-02  0.5490558E+03  0.7816531E-02  0.1001713E+00
       -2   -1    0    0    0  501  0.00000000000E+00  0.00000000000E+00  0.35650841958E+03  0.35650841958E+03  0.00000000000E+00 0.  1.
        2   -1    0    0  503    0  0.00000000000E+00  0.00000000000E+00 -0.12725255033E+04  0.12725255033E+04  0.00000000000E+00 0. -1.
  1000006    1    1    2  502    0  0.17542296745E+03  0.33993479122E+03 -0.84113503954E+03  0.98809768471E+03  0.35000000000E+03 0.  0.
 -1000006    1    1    2    0  501 -0.20932466081E+03 -0.38217709386E+03 -0.13493973226E+02  0.55906907624E+03  0.35000000000E+03 0.  0.
       21    1    1    2  503  502  0.33901693363E+02  0.42242302637E+02 -0.61388070946E+02  0.81867161911E+02  0.00000000000E+00 0.  1.
<scales pt_clust_1="13000.00000" pt_clust_2="13000.00000" pt_clust_3="54.16398"></scales>
<clustering>
<clus scale="   54.164">  2  5  1 -1</clus>
<clus scale=" 1137.058">  3  4 -1 -1</clus>
<clus scale="  549.056">  2  3  1 -1</clus>
</clustering>
</event>
<event>
 4   0  0.3464723E-02  0.3996247E+03  0.7816531E-02  0.1043910E+00
       21   -1    0    0  501  502  0.00000000000E+00  0.00000000000E+00  0.78285969373E+03  0.78285969373E+03  0.00000000000E+00 0.  1.
       21   -1    0    0  502  503  0.00000000000E+00  0.00000000000E+00 -0.22365448785E+03  0.22365448785E+03  0.00000000000E+00 0.  1.
  1000006    1    1    2  501    0  0.70830904401E+02 -0.17939579636E+03  0.42880694851E+03  0.58615293897E+03  0.35000000000E+03 0.  0.
 -1000006    1    1    2    0  503 -0.70830904401E+02  0.17939579636E+03  0.13039825737E+03  0.42036124262E+03  0.35000000000E+03 0.  0.
<scales pt_clust_1="13000.00000" pt_clust_2="13000.00000"></scales>
<clustering>
<clus scale="  399.625">  1  3  2 -1</clus>
<clus scale="  399.625">  1  3  2 -1</clus>
</clustering>
</event>
<event>
 5   1  0.3464723E-02  0.3649045E+03  0.7816531E-02  0.1056659E+00
       21   -1    0    0  501  502  0.00000000000E+00  0.00000000000E+00  0.32841449587E+03  0.32841449587E+03  0.00000000000E+00 0. -1.
       21   -1    0    0  504  503  0.00000000000E+00  0.00000000000E+00 -0.67227307489E+03  0.67227307489E+03  0.00000000000E+00 0. -1.
  1000006    1    1    2  501    0 -0.14579923537E+03 -0.73993277504E+02 -0.18418871230E+01  0.38631051590E+03  0.35000000000E+03 0.  0.
 -1000006    1    1    2    0  503  0.78578305761E+02  0.21429531876E+02 -0.37819292368E+03  0.52169307308E+03  0.35000000000E+03 0.  0.
       21    1    1    2  504  502  0.67220929605E+02  0.52563745628E+02  0.36176231783E+02  0.92683981774E+02  0.00000000000E+00 0.  1.
<scales pt_clust_1="13000.00000" pt_clust_2="13000.00000" pt_clust_3="85.33230"></scales>
<clustering>
<clus scale="   85.332">  1  5  2 -1</clus>
<clus scale="  364.905">  1  3  2 -1</clus>
<clus scale="  364.905">  1  3  2 -1</clus>
</clustering>
</event>
<event>
 5   1  0.3464723E-02  0.3886831E+03  0.7816531E-02  0.1047770E+00
       21   -1    0    0  504  502  0.00000000000E+00  0.00000000000E+00  0.36204075605E+03  0.36204075605E+03  0.00000000000E+00 0.  1.
       21   -1    0    0  501  503  0.00000000000E+00  0.00000000000E+00 -0.60502422271E+03  0.60502422271E+03  0.00000000000E+00 0.  1.
  1000006    1    1    2  501    0  0.13087982234E+03  0.38653836471E+02 -0.18952580533E+03  0.42076558540E+03  0.35000000000E+03 0.  0.
 -1000006    1    1    2    0  502 -0.19031431564E+03  0.50841007532E+02  0.40384635424E+02  0.40365240686E+03  0.35000000000E+03 0.  0.
       21    1    1    2  504  503  0.59434493305E+02 -0.89494844003E+02 -0.93842296752E+02  0.14264698650E+03  0.00000000000E+00 0.  1.
<scales pt_clust_1="13000.00000" pt_clust_2="13000.00000" pt_clust_3="107.43270"></scales>
<clustering>
<clus scale="  107.433">  2  5  1 -1</clus>
<clus scale="  388.683">  2  3  1 -1</clus>
<clus scale="  388.683">  1  3  2 -1</clus>
</clustering>
</event>
<event>
 6   2  0.3464723E-02  0.7594165E+03  0.7816531E-02  0.9620692E-01
       21   -1    0    0  501  502  0.00000000000E+00  0.00000000000E+00  0.81524739986E+03  0.81524739986E+03  0.00000000000E+00 0.  1.
       21   -1    0    0  504  503  0.00000000000E+00  0.00000000000E+00 -0.93101018207E+03  0.93101018207E+03  0.00000000000E+00 0. -1.
  1000006    1    1    2  501    0  0.68485706533E+03 -0.17223010412E+03 -0.28953349208E+02  0.78868923229E+03  0.35000000000E+03 0.  0.
 -1000006    1    1    2    0  503 -0.63017292513E+03  0.11982184050E+03 -0.13258550913E+03  0.74266688782E+03  0.35000000000E+03 0.  0.
       21    1    1    2  504  505 -0.32016126698E+02  0.79435966969E+02 -0.59228358881E+02  0.10413022478E+03  0.00000000000E+00 0.  1.
       21    1    1    2  505  502 -0.22668013495E+02 -0.27027703345E+02  0.10500443501E+03  0.11077123704E+03  0.00000000000E+00 0.  1.
<scales pt_clust_1="13000.00000" pt_clust_2="13000.00000" pt_clust_3="85.12427" pt_clust_4="35.27514"></scales>
<clustering>
<clus scale="   35.275">  1  6  2 -1</clus>
<clus scale="   85.124">  2  5  1 -1</clus>
<clus scale="  759.417">  2  4  1 -1</clus>
<clus scale="  759.417">  1  3  2 -1</clus>
</clustering>
</event>
<event>
 6   2  0.3464723E-02  0.3546563E+03  0.7816531E-02  0.1060720E+00
       21   -1    0    0  504  502  0.00000000000E+00  0.00000000000E+00  0.70488602086E+03  0.70488602086E+03  0.00000000000E+00 0.  1.
       21   -1    0    0  505  503  0.00000000000E+00  0.00000000000E+00 -0.23991545001E+03  0.23991545001E+03  0.00000000000E+00 0.  1.
  1000006    1    1    2  501    0  0.69213882401E+02  0.42958574577E+02  0.19288981488E+03  0.40785105288E+03  0.35000000000E+03 0.  0.
 -1000006    1    1    2    0  503 -0.12586964355E+02 -0.39255089234E+02  0.17044101971E+03  0.39147098858E+03  0.35000000000E+03 0.  0.
       21    1    1    2  504  501 -0.26257093721E+02  0.39902039403E+02  0.30459230495E+02  0.56651323387E+02  0.00000000000E+00 0.  1.
       21    1    1    2  505  502 -0.30369824325E+02 -0.43605524746E+02  0.71180505763E+02  0.88828106017E+02  0.00000000000E+00 0.  1.
<scales pt_clust_1="13000.00000" pt_clust_2="13000.00000" pt_clust_3="47.76618" pt_clust_4="51.27490"></scales>
<clustering>
<clus scale="   47.766">  1  5  2 -1</clus>
<clus scale="   51.275">  1  6  2 -1</clus>
<clus scale="  354.656">  2  4  1 -1</clus>
<clus scale="  354.656">  1  3  2 -1</clus>
</clustering>
</event>
<event>
 6   2  0.3464723E-02  0.3648378E+03  0.7816531E-02  0.1056685E+00
       21   -1    0    0  504  502  0.00000000000E+00  0.00000000000E+00  0.10308749088E+04  0.10308749088E+04  0.00000000000E+00 0.  1.
       21   -1    0    0  505  503  0.00000000000E+00  0.00000000000E+00 -0.21701551466E+04  0.21701551466E+04  0.00000000000E+00 0.  1.
  1000006    1    1    2  501    0  0.37293186943E+02 -0.15333605216E+03  0.17784210370E+03  0.42312000725E+03  0.35000000000E+03 0.  0.
 -1000006    1    1    2    0  503 -0.17015828256E+03 -0.26819896912E+02 -0.19011065311E+03  0.43395300254E+03  0.35000000000E+03 0.  0.
       21    1    1    2  504  501 -0.60777756190E+01  0.67835766020E+02  0.60194893025E+03  0.60578968722E+03  0.00000000000E+00 0.  1.
       21    1    1    2  505  502  0.13894287123E+03  0.11232018305E+03 -0.17289606186E+04  0.17381673584E+04  0.00000000000E+00 0.  1.
<scales pt_clust_1="13000.00000" pt_clust_2="13000.00000" pt_clust_3="68.10749" pt_clust_4="179.07417"></scales>
<clustering>
<clus scale="   68.107">  1  5  2 -1</clus>
<clus scale="  179.074">  2  6  1 -1</clus>
<clus scale="  364.838">  1  3  2 -1</clus>
<clus scale="  364.838">  1  3  2 -1</clus>
</clustering>
</event>
<event>
 4   0  0.3464723E-02  0.3905283E+03  0.7816531E-02  0.1047110E+00
       21   -1    0    0  503  502  0.00000000000E+00  0.00000000000E+00  0.10621070525E+04  0.10621070525E+04  0.00000000000E+00 0.  1.
       21   -1    0    0  501  503  0.00000000000E+00  0.00000000000E+00 -0.22426277204E+03  0.22426277204E+03  0.00000000000E+00 0.  1.
  1000006    1    1    2  501    0  0.17100912427E+03  0.27717657348E+02  0.33168974165E+02  0.39193439497E+03  0.35000000000E+03 0.  0.
 -1000006    1    1    2    0  502 -0.17100912427E+03 -0.27717657348E+02  0.80467530625E+03  0.89443542954E+03  0.35000000000E+03 0.  0.
<scales pt_clust_1="13000.00000" pt_clust_2="13000.00000"></scales>
<clustering>
<clus scale="  390.528">  2  3  1 -1</clus>
<clus scale="  390.528">  1  3  2 -1</clus>
</clustering>
</event>
<event>
 6   2  0.3464723E-02  0.3698471E+03  0.7816531E-02  0.1054751E+00
        2   -1    0    0  501    0  0.00000000000E+00  0.00000000000E+00  0.13861145476E+04  0.13861145476E+04  0.00000000000E+00 0. -1.
       21   -1    0    0  504  503  0.00000000000E+00  0.00000000000E+00 -0.17350284327E+04  0.17350284327E+04  0.00000000000E+00 0.  1.
  1000006    1    1    2  501    0 -0.95982824206E+01 -0.73213936544E+02 -0.53467279637E+02  0.36167825138E+03  0.35000000000E+03 0.  0.
 -1000006    1    1    2    0  503 -0.21772726702E+02  0.12272514990E+03 -0.12761281336E+04  0.13291119319E+04  0.35000000000E+03 0.  0.
       21    1    1    2  504  502  0.49945624877E+02  0.47232567864E+01 -0.22134541114E+03  0.22695961233E+03  0.00000000000E+00 0.  1.
        2    1    1    2  502    0 -0.18574615755E+02 -0.54234470140E+02  0.12020269393E+04  0.12033931847E+04  0.00000000000E+00 0. -1.
<scales pt_clust_1="13000.00000" pt_clust_2="13000.00000" pt_clust_3="50.16846" pt_clust_4="57.31775"></scales>
<clustering>
<clus scale="   50.168">  2  5  1 -1</clus>
<clus scale="   57.318">  1  6  2 -1</clus>
<clus scale="  369.847">  2  4  1 -1</clus>
<clus scale="  369.847">  2  3  1 -1</clus>
</clustering>
</event>
<event>
 6   2  0.3464723E-02  0.4189263E+03  0.7816531E-02  0.1037416E+00
        1   -1    0    0  504    0  0.00000000000E+00  0.00000000000E+00  0.30715739008E+03  0.30715739008E+03  0.00000000000E+00 0.  1.
       21   -1    0    0  501  503  0.00000000000E+00  0.00000000000E+00 -0.98124059281E+03  0.98124059281E+03  0.00000000000E+00 0.  1.
  1000006    1    1    2  501    0  0.17987825444E+03 -0.15959935534E+03 -0.47126003430E+03  0.63436122247E+03  0.35000000000E+03 0.  0.
 -1000006    1    1    2    0  502 -0.94043431226E+02  0.20729702640E+03 -0.26226538000E+03  0.49305106597E+03  0.35000000000E+03 0.  0.
       21    1    1    2  504  503 -0.10444182481E+02 -0.43198342818E+02  0.71814590865E+02  0.84454207894E+02  0.00000000000E+00 0. -1.
        1    1    1    2  502    0 -0.75390640737E+02 -0.44993282398E+01 -0.12372379299E+02  0.76531486558E+02  0.00000000000E+00 0.  1.
<scales pt_clust_1="13000.00000" pt_clust_2="13000.00000" pt_clust_3="44.44297" pt_clust_4="77.57434"></scales>
<clustering>
<clus scale="   44.443">  1  5  2 -1</clus>
<clus scale="   77.574">  1  6  2 -1</clus>
<clus scale="  418.926">  1  4  2 -1</clus>
<clus scale="  418.926">  2  3  1 -1</clus>
</clustering>
</event>
<event>
 4   0  0.3464723E-02  0.5982225E+03  0.7816531E-02  0.9909101E-01
        1   -1    0    0  502    0  0.00000000000E+00  0.00000000000E+00  0.29157871206E+03  0.29157871206E+03  0.00000000000E+00 0. -1.
       -1   -1    0    0    0  501  0.00000000000E+00  0.00000000000E+00 -0.15225034874E+04  0.15225034874E+04  0.00000000000E+00 0.  1.
  1000006    1    1    2  502    0  0.23889261048E+03  0.42225645331E+03 -0.10148265632E+04  0.11780251038E+04  0.35000000000E+03 0.  0.
 -1000006    1    1    2    0  501 -0.23889261048E+03 -0.42225645331E+03 -0.21609821213E+03  0.63605709570E+03  0.35000000000E+03 0.  0.
<scales pt_clust_1="13000.00000" pt_clust_2="13000.00000"></scales>
<clustering>
<clus scale=" 1186.684">  3  4 -1 -1</clus>
<clus scale="  598.223">  1  3  2 -1</clus>
</clustering>
</event>
<event>
 6   2  0.3464723E-02  0.5947673E+03  0.7816531E-02  0.9916322E-01
       -2   -1    0    0    0  501  0.00000000000E+00  0.00000000000E+00  0.98103649965E+03  0.98103649965E+03  0.00000000000E+00 0.  1.
        2   -1    0    0  503    0  0.00000000000E+00  0.00000000000E+00 -0.46332037470E+03  0.46332037470E+03  0.00000000000E+00 0. -1.
  1000006    1    1    2  502    0 -0.24558372854E+03  0.36094823610E+03  0.90872663281E+02  0.56687991479E+03  0.35000000000E+03 0.  0.
 -1000006    1    1    2    0  504  0.23065424271E+03 -0.47096781232E+03  0.32476758408E+03  0.70921508979E+03  0.35000000000E+03 0.  0.
       21    1    1    2  503  502  0.88332336195E+01  0.76328324091E+02  0.20100041331E+02  0.79423238011E+02  0.00000000000E+00 0.  1.
       21    1    1    2  504  501  0.60962522026E+01  0.33691252129E+02  0.81975836260E+02  0.88838631751E+02  0.00000000000E+00 0. -1.
<scales pt_clust_1="13000.00000" pt_clust_2="13000.00000" pt_clust_3="78.73627" pt_clust_4="34.23835"></scales>
<clustering>
<clus scale="   34.238">  1  6  2 -1</clus>
<clus scale="   78.736">  2  5  1 -1</clus>
<clus scale=" 1037.224">  3  4 -1 -1</clus>
<clus scale="  594.767">  2  3  1 -1</clus>
</clustering>
</event>
<event>
 5   1  0.3464723E-02  0.3679454E+03  0.7816531E-02  0.1055481E+00
       21   -1    0    0  504  502  0.00000000000E+00  0.00000000000E+00  0.10680319926E+03  0.10680319926E+03  0.00000000000E+00 0.  1.
       21   -1    0    0  501  503  0.00000000000E+00  0.00000000000E+00 -0.18708058623E+04  0.18708058623E+04  0.00000000000E+00 0.  1.
  1000006    1    1    2  501    0 -0.10222871205E+03 -0.60568056603E+02 -0.13348644335E+04  0.13850928687E+04  0.35000000000E+03 0.  0.
 -1000006    1    1    2    0  502  0.10973033682E+03  0.27083004171E+02 -0.35667700794E+03  0.51234043753E+03  0.35000000000E+03 0.  0.
       21    1    1    2  504  503 -0.75016247672E+01  0.33485052432E+02 -0.72461221576E+02  0.80175755330E+02  0.00000000000E+00 0.  1.
<scales pt_clust_1="13000.00000" pt_clust_2="13000.00000" pt_clust_3="34.31506"></scales>
<clustering>
<clus scale="   34.315">  2  5  1 -1</clus>
<clus scale="  367.945">  2  3  1 -1</clus>
<clus scale="  367.945">  1  3  2 -1</clus>
</clustering>
</event>
<event>
 6   2  0.3464723E-02  0.3526172E+03  0.7816531E-02  0.1061546E+00
        2   -1    0    0  504    0  0.00000000000E+00  0.00000000000E+00  0.13846749886E+04  0.13846749886E+04  0.00000000000E+00 0. -1.
       21   -1    0    0  501  503  0.00000000000E+00  0.00000000000E+00 -0.70151951597E+03  0.70151951597E+03  0.00000000000E+00 0. -1.
  1000006    1    1    2  501    0  0.12057364407E+02  0.27618858695E+02 -0.36480391760E+03  0.50644849658E+03  0.35000000000E+03 0.  0.
 -1000006    1    1    2    0  502 -0.96484016278E+02  0.22983672929E+02 -0.12268579540E+03  0.38391303574E+03  0.35000000000E+03 0.  0.
       21    1    1    2  504  503 -0.16003932711E+02 -0.29845101770E+02  0.17468493376E+02  0.38105173175E+02  0.00000000000E+00 0. -1.
        2    1    1    2  502    0  0.10043058458E+03 -0.20757429854E+02  0.11531766922E+04  0.11577277991E+04  0.00000000000E+00 0. -1.
<scales pt_clust_1="13000.00000" pt_clust_2="13000.00000" pt_clust_3="33.86526" pt_clust_4="98.31846"></scales>
<clustering>
<clus scale="   33.865">  1  5  2 -1</clus>
<clus scale="   98.318">  1  6  2 -1</clus>
<clus scale="  352.617">  1  4  2 -1</clus>
<clus scale="  352.617">  2  3  1 -1</clus>
</clustering>
</event>
<event>
 6   2  0.3464723E-02  0.3770849E+03  0.7816531E-02  0.1052016E+00
       21   -1    0    0  501  502  0.00000000000E+00  0.00000000000E+00  0.28827190191E+03  0.28827190191E+03  0.00000000000E+00 0.  1.
       21   -1    0    0  504  503  0.00000000000E+00  0.00000000000E+00 -0.25348121073E+04  0.25348121073E+04  0.00000000000E+00 0.  1.
  1000006    1    1    2  501    0 -0.11292751082E+02  0.15023829012E+03  0.89825546247E+02  0.39149418745E+03  0.35000000000E+03 0.  0.
 -1000006    1    1    2    0  505 -0.22835041671E+02 -0.11397044023E+03 -0.82674769790E+03  0.90527479604E+03  0.35000000000E+03 0.  0.
       21    1    1    2  504  502 -0.30092855909E+02 -0.90569552597E+01 -0.25261235431E+02  0.40320446809E+02  0.00000000000E+00 0.  1.
       21    1    1    2  505  503  0.64220648663E+02 -0.27210894634E+02 -0.14843568183E+04  0.14859945789E+04  0.00000000000E+00 0.  1.
<scales pt_clust_1="13000.00000" pt_clust_2="13000.00000" pt_clust_3="31.42624" pt_clust_4="69.67709"></scales>
<clustering>
<clus scale="   31.426">  1  5  2 -1</clus>
<clus scale="   69.677">  2  6  1 -1</clus>
<clus scale="  377.085">  1  3  2 -1</clus>
<clus scale="  377.085">  1  3  2 -1</clus>
</clustering>
</event>
<event>
 4   0  0.3464723E-02  0.4690279E+03  0.7816531E-02  0.1022195E+00
        1   -1    0    0  502    0  0.00000000000E+00  0.00000000000E+00  0.15851279092E+04  0.15851279092E+04  0.00000000000E+00 0.  1.
       -1   -1    0    0    0  501  0.00000000000E+00  0.00000000000E+00 -0.14342049411E+03  0.14342049411E+03  0.00000000000E+00 0. -1.
  1000006    1    1    2  502    0  0.12982792893E+03  0.28395756460E+03  0.87628390147E+03  0.99391179971E+03  0.35000000000E+03 0.  0.
 -1000006    1    1    2    0  501 -0.12982792893E+03 -0.28395756460E+03  0.56542351367E+03  0.73463660366E+03  0.35000000000E+03 0.  0.
<scales pt_clust_1="13000.00000" pt_clust_2="13000.00000"></scales>
<clustering>
<clus scale="  736.111">  3  4 -1 -1</clus>
<clus scale="  469.028">  1  3  2 -1</clus>
</clustering>
</event>
<event>
 5   1  0.3464723E-02  0.4145629E+03  0.7816531E-02  0.1038851E+00
        2   -1    0    0  503    0  0.00000000000E+00  0.00000000000E+00  0.14746359591E+04  0.14746359591E+04  0.00000000000E+00 0. -1.
       -2   -1    0    0    0  501  0.00000000000E+00  0.00000000000E+00 -0.19057984519E+03  0.19057984519E+03  0.00000000000E+00 0.  1.
  1000006    1    1    2  502    0 -0.19199622035E+03 -0.81387396221E+02  0.23272620524E+03  0.46919925777E+03  0.35000000000E+03 0.  0.
 -1000006    1    1    2    0  501  0.25382000004E+03  0.28201740972E+02  0.61598326277E+03  0.75309714554E+03  0.35000000000E+03 0.  0.
       21    1    1    2  503  502 -0.61823779690E+02  0.53185655249E+02  0.43534664590E+03  0.44291940097E+03  0.00000000000E+00 0.  1.
<scales pt_clust_1="13000.00000" pt_clust_2="13000.00000" pt_clust_3="81.55301"></scales>
<clustering>
<clus scale="   81.553">  1  5  2 -1</clus>
<clus scale="  632.100">  3  4 -1 -1</clus>
<clus scale="  414.563">  1  3  2 -1</clus>
</clustering>
</event>
<event>
 5   1  0.3464723E-02  0.4520941E+03  0.7816531E-02  0.1027099E+00
       21   -1    0    0  501  502  0.00000000000E+00  0.00000000000E+00  0.10985289383E+04  0.10985289383E+04  0.00000000000E+00 0. -1.
       21   -1    0    0  504  503  0.00000000000E+00  0.00000000000E+00 -0.29094170934E+03  0.29094170934E+03  0.00000000000E+00 0.  1.
  1000006    1    1    2  501    0 -0.26022808878E+03  0.12239069408E+03  0.69456444539E+03  0.82922729634E+03  0.35000000000E+03 0.  0.
 -1000006    1    1    2    0  503  0.23784127512E+03 -0.15700886875E+03  0.17643106133E+03  0.48461136637E+03  0.35000000000E+03 0.  0.
       21    1    1    2  504  502  0.22386813669E+02  0.34618174673E+02 -0.63408277805E+02  0.75631984888E+02  0.00000000000E+00 0.  1.
<scales pt_clust_1="13000.00000" pt_clust_2="13000.00000" pt_clust_3="41.22605"></scales>
<clustering>
<clus scale="   41.226">  2  5  1 -1</clus>
<clus scale="  452.094">  2  4  1 -1</clus>
<clus scale="  452.094">  1  3  2 -1</clus>
</clustering>
</event>
<event>
 5   1  0.3464723E-02  0.1036385E+04  0.7816531E-02  0.9269514E-01
       21   -1    0    0  503  502  0.00000000000E+00  0.00000000000E+00  0.81883748007E+03  0.81883748007E+03  0.00000000000E+00 0. -1.
       21   -1    0    0  504  503  0.00000000000E+00  0.00000000000E+00 -0.15117406638E+04  0.15117406638E+04  0.00000000000E+00 0.  1.
  1000006    1    1    2  501    0 -0.10370040610E+04  0.87368887331E+01 -0.43930788668E+03  0.11793833876E+04  0.35000000000E+03 0.  0.
 -1000006    1    1    2    0  502  0.93033139445E+03  0.36693313810E+02 -0.17202806759E+03  0.10094337813E+04  0.35000000000E+03 0.  0.
       21    1    1    2  504  501  0.10667266654E+03 -0.45430202543E+02 -0.81567229423E+02  0.14176097490E+03  0.00000000000E+00 0. -1.
<scales pt_clust_1="13000.00000" pt_clust_2="13000.00000" pt_clust_3="115.94378"></scales>
<clustering>
<clus scale="  115.944">  2  5  1 -1</clus>
<clus scale=" 1036.385">  2  3  1 -1</clus>
<clus scale=" 1036.385">  1  3  2 -1</clus>
</clustering>
</event>
<event>
 4   0  0.3464723E-02  0.3549252E+03  0.7816531E-02  0.1060612E+00
       21   -1    0    0  501  502  0.00000000000E+00  0.00000000000E+00  0.47799668618E+03  0.47799668618E+03  0.00000000000E+00 0.  1.
       21   -1    0    0  502  503  0.00000000000E+00  0.00000000000E+00 -0.42723101275E+03  0.42723101275E+03  0.00000000000E+00 0.  1.
  1000006    1    1    2  501    0  0.56802770230E+02 -0.15662598923E+02  0.30554348687E+03  0.46832541473E+03  0.35000000000E+03 0.  0.
 -1000006    1    1    2    0  503 -0.56802770230E+02  0.15662598923E+02 -0.25477781345E+03  0.43690228419E+03  0.35000000000E+03 0.  0.
<scales pt_clust_1="13000.00000" pt_clust_2="13000.00000"></scales>
<clustering>
<clus scale="  354.925">  1  3  2 -1</clus>
<clus scale="  354.925">  1  3  2 -1</clus>
</clustering>
</event>
<event>
 5   1  0.3464723E-02  0.3955204E+03  0.7816531E-02  0.1045342E+00
       21   -1    0    0  504  502  0.00000000000E+00  0.00000000000E+00  0.15218583853E+03  0.15218583853E+03  0.00000000000E+00 0. -1.
       21   -1    0    0  501  503  0.00000000000E+00  0.00000000000E+00 -0.19834296919E+04  0.19834296919E+04  0.00000000000E+00 0. -1.
  1000006    1    1    2  501    0  0.81589614601E+02  0.12071890092E+03 -0.13101964471E+04  0.13639445180E+04  0.35000000000E+03 0.  0.
 -1000006    1    1    2    0  502 -0.18652788884E+03 -0.73064970196E+02 -0.24335698313E+03  0.47101355015E+03  0.35000000000E+03 0.  0.
       21    1    1    2  504  503  0.10493827423E+03 -0.47653930726E+02 -0.27769042309E+03  0.30065746222E+03  0.00000000000E+00 0. -1.
<scales pt_clust_1="13000.00000" pt_clust_2="13000.00000" pt_clust_3="115.25163"></scales>
<clustering>
<clus scale="  115.252">  2  5  1 -1</clus>
<clus scale="  395.520">  2  3  1 -1</clus>
<clus scale="  395.520">  1  3  2 -1</clus>
</clustering>
</event>
<event>
 5   1  0.3464723E-02  0.7056402E+03  0.7816531E-02  0.9707635E-01
       -2   -1    0    0    0  501  0.00000000000E+00  0.00000000000E+00  0.23468192170E+03  0.23468192170E+03  0.00000000000E+00 0. -1.
        2   -1    0    0  502    0  0.00000000000E+00  0.00000000000E+00 -0.23330787930E+04  0.23330787930E+04  0.00000000000E+00 0.  1.
  1000006    1    1    2  502    0 -0.63273742350E+03  0.57312664765E+02 -0.83556963512E+03  0.11064890437E+04  0.35000000000E+03 0.  0.
 -1000006    1    1    2    0  503  0.59331311153E+03 -0.70209302627E+02 -0.12099111529E+04  0.13940354345E+04  0.35000000000E+03 0.  0.
       21    1    1    2  503  501  0.39424311963E+02  0.12896637863E+02 -0.52916083209E+02  0.67236236540E+02  0.00000000000E+00 0.  1.
<scales pt_clust_1="13000.00000" pt_clust_2="13000.00000" pt_clust_3="41.48011"></scales>
<clustering>
<clus scale="   41.480">  1  5  2 -1</clus>
<clus scale=" 1303.614">  3  4 -1 -1</clus>
<clus scale="  705.640">  2  3  1 -1</clus>
</clustering>
</event>
<event>
 5   1  0.3464723E-02  0.4920391E+03  0.7816531E-02  0.1015878E+00
       21   -1    0    0  501  502  0.00000000000E+00  0.00000000000E+00  0.11877476279E+04  0.11877476279E+04  0.00000000000E+00 0. -1.
       21   -1    0    0  504  503  0.00000000000E+00  0.00000000000E+00 -0.33651079127E+03  0.33651079127E+03  0.00000000000E+00 0. -1.
  1000006    1    1    2  501    0 -0.11169172162E+03  0.28085929925E+03  0.49403767855E+03  0.67670541189E+03  0.35000000000E+03 0.  0.
 -1000006    1    1    2    0  503  0.16475034409E+03 -0.36984653543E+03  0.45695411995E+03  0.70373020639E+03  0.35000000000E+03 0.  0.
       21    1    1    2  504  502 -0.53058622470E+02  0.88987236183E+02 -0.99754961902E+02  0.14382280086E+03  0.00000000000E+00 0. -1.
<scales pt_clust_1="13000.00000" pt_clust_2="13000.00000" pt_clust_3="103.60476"></scales>
<clustering>
<clus scale="  103.605">  2  5  1 -1</clus>
<clus scale="  492.039">  2  4  1 -1</clus>
<clus scale="  492.039">  1  3  2 -1</clus>
</clustering>
</event>
<event>
 5   1  0.3464723E-02  0.3726759E+03  0.7816531E-02  0.1053674E+00
       21   -1    0    0  502  503  0.00000000000E+00  0.00000000000E+00  0.12019469991E+03  0.12019469991E+03  0.00000000000E+00 0.  1.
        2   -1    0    0  501    0  0.00000000000E+00  0.00000000000E+00 -0.31003571717E+04  0.31003571717E+04  0.00000000000E+00 0.  1.
  1000006    1    1    2  501    0  0.89934518473E+02 -0.88402131200E+02 -0.26792030095E+04  0.27049088562E+04  0.35000000000E+03 0.  0.
 -1000006    1    1    2    0  503 -0.84198036614E+02  0.11845084146E+03 -0.24323800474E+03  0.45031615356E+03  0.35000000000E+03 0.  0.
        2    1    1    2  502    0 -0.57364818598E+01 -0.30048710258E+02 -0.57721457613E+02  0.65326861866E+02  0.00000000000E+00 0.  1.
<scales pt_clust_1="13000.00000" pt_clust_2="13000.00000" pt_clust_3="30.59137"></scales>
<clustering>
<clus scale="   30.591">  1  5  2 -1</clus>
<clus scale=" 1022.911">  3  4 -1 -1</clus>
<clus scale="  372.676">  1  3  2 -1</clus>
</clustering>
</event>
<event>
 5   1  0.3464723E-02  0.5018868E+03  0.7816531E-02  0.1022524E+00
        2   -1    0    0  503    0  0.00000000000E+00  0.00000000000E+00  0.27744839698E+04  0.27744839698E+04  0.00000000000E+00 0.  1.
       21   -1    0    0  501  503  0.00000000000E+00  0.00000000000E+00 -0.14634607561E+03  0.14634607561E+03  0.00000000000E+00 0.  1.
  1000006    1    1    2  501    0  0.13502021873E+03  0.54174147201E+02  0.58374615590E+03  0.69600637369E+03  0.35000000000E+03 0.  0.
 -1000006    1    1    2    0  502  0.12189579276E+03  0.27387001802E+03  0.10521307142E+04  0.11486263147E+04  0.35000000000E+03 0.  0.
        2    1    1    2  502    0 -0.25691601149E+03 -0.32804416522E+03  0.99226102407E+03  0.10761973570E+04  0.00000000000E+00 0.  1.
<scales pt_clust_1="13000.00000" pt_clust_2="13000.00000" pt_clust_3="359.70891"></scales>
<clustering>
<clus scale="  379.032">  2  3  1 -1</clus>
<clus scale="  359.709">  1  5  2 -1</clus>
<clus scale="  501.887">  2  3  1 -1</clus>
</clustering>
</event>
<event>
 4   0  0.3464723E-02  0.4390064E+03  0.7816531E-02  0.1031052E+00
       -1   -1    0    0    0  501  0.00000000000E+00  0.00000000000E+00  0.12880678844E+03  0.12880678844E+03  0.00000000000E+00 0.  1.
        1   -1    0    0  502    0  0.00000000000E+00  0.00000000000E+00 -0.14998904351E+04  0.14998904351E+04  0.00000000000E+00 0. -1.
  1000006    1    1    2  502    0  0.26499618605E+03  0.19097981657E+01 -0.64539944304E+03  0.78055561430E+03  0.35000000000E+03 0.  0.
 -1000006    1    1    2    0  501 -0.26499618605E+03 -0.19097981657E+01 -0.72568420367E+03  0.84814160928E+03  0.35000000000E+03 0.  0.
<scales pt_clust_1="13000.00000" pt_clust_2="13000.00000"></scales>
<clustering>
<clus scale="  636.619">  3  4 -1 -1</clus>
<clus scale="  439.006">  2  3  1 -1</clus>
</clustering>
</event>
<event>
 5   1  0.3464723E-02  0.3621683E+03  0.7816531E-02  0.1057729E+00
       21   -1    0    0  504  502  0.00000000000E+00  0.00000000000E+00  0.89485797283E+03  0.89485797283E+03  0.00000000000E+00 0.  1.
       21   -1    0    0  501  503  0.00000000000E+00  0.00000000000E+00 -0.18801501603E+03  0.18801501603E+03  0.00000000000E+00 0.  1.
  1000006    1    1    2  501    0  0.37451396253E+02 -0.99071282014E+02  0.17538751450E+03  0.40555949779E+03  0.35000000000E+03 0.  0.
 -1000006    1    1    2    0  502 -0.10304282349E+02  0.73637622410E+02  0.38244479096E+03  0.52372960180E+03  0.35000000000E+03 0.  0.
       21    1    1    2  504  503 -0.27147113904E+02  0.25433659604E+02  0.14901065133E+03  0.15358388927E+03  0.00000000000E+00 0. -1.
<scales pt_clust_1="13000.00000" pt_clust_2="13000.00000" pt_clust_3="37.19996"></scales>
<clustering>
<clus scale="   37.200">  1  5  2 -1</clus>
<clus scale="  362.168">  2  3  1 -1</clus>
<clus scale="  362.168">  1  3  2 -1</clus>
</clustering>
</event>
<event>
 6   2  0.3464723E-02  0.9224821E+03  0.7816531E-02  0.9397906E-01
       21   -1    0    0  504  503  0.00000000000E+00  0.00000000000E+00  0.54308914954E+03  0.54308914954E+03  0.00000000000E+00 0. -1.
        2   -1    0    0  501    0  0.00000000000E+00  0.00000000000E+00 -0.20882573885E+04  0.20882573885E+04  0.00000000000E+00 0.  1.
  1000006    1    1    2  501    0  0.33891918066E+03 -0.15504442143E+03 -0.15826820016E+03  0.53521379543E+03  0.35000000000E+03 0.  0.
 -1000006    1    1    2    0  503  0.17883773649E+03  0.33089452305E+02 -0.59613534800E+02  0.39891304990E+03  0.35000000000E+03 0.  0.
       21    1    1    2  504  502  0.21424246131E+02 -0.26246002339E+02  0.13104744589E+03  0.13535613779E+03  0.00000000000E+00 0.  1.
        2    1    1    2  502    0 -0.53918116329E+03  0.14820097146E+03 -0.14583339499E+04  0.15618635550E+04  0.00000000000E+00 0.  1.
<scales pt_clust_1="13000.00000" pt_clust_2="13000.00000" pt_clust_3="33.87995" pt_clust_4="555.69597"></scales>
<clustering>
<clus scale="   33.880">  1  5  2 -1</clus>
<clus scale="  379.904">  3  4 -1 -1</clus>
<clus scale="  555.696">  2  6  1 -1</clus>
<clus scale="  922.482">  1  3  2 -1</clus>
</clustering>
</event>
<event>
 5   1  0.3464723E-02  0.3596132E+03  0.7816531E-02  0.1058737E+00
       21   -1    0    0  501  502  0.00000000000E+00  0.00000000000E+00  0.82347681998E+03  0.82347681998E+03  0.00000000000E+00 0. -1.
       21   -1    0    0  504  503  0.00000000000E+00  0.00000000000E+00 -0.54396194383E+03  0.54396194383E+03  0.00000000000E+00 0. -1.
  1000006    1    1    2  501    0  0.17353418481E+02 -0.73128560703E+02  0.58384534300E+03  0.68485349679E+03  0.35000000000E+03 0.  0.
 -1000006    1    1    2    0  503 -0.41106003832E+02  0.10182510217E+03  0.91142028633E+01  0.36693476760E+03  0.35000000000E+03 0.  0.
       21    1    1    2  504  502  0.23752585351E+02 -0.28696541463E+02 -0.31344466972E+03  0.31565049941E+03  0.00000000000E+00 0. -1.
<scales pt_clust_1="13000.00000" pt_clust_2="13000.00000" pt_clust_3="37.25153"></scales>
<clustering>
<clus scale="   37.252">  2  5  1 -1</clus>
<clus scale="  359.613">  1  3  2 -1</clus>
<clus scale="  359.613">  1  3  2 -1</clus>
</clustering>
</event>
<event>
 6   2  0.3464723E-02  0.5498999E+03  0.7816531E-02  0.1001517E+00
       21   -1    0    0  504  503  0.00000000000E+00  0.00000000000E+00  0.70457734880E+03  0.70457734880E+03  0.00000000000E+00 0.  1.
       -3   -1    0    0    0  501  0.00000000000E+00  0.00000000000E+00 -0.78444942639E+03  0.78444942639E+03  0.00000000000E+00 0. -1.
  1000006    1    1    2  502    0 -0.40983560659E+03  0.14130559837E+03 -0.14050790362E+03  0.57460853417E+03  0.35000000000E+03 0.  0.
 -1000006    1    1    2    0  503  0.32377932982E+03 -0.24320065452E+03  0.24480602822E+03  0.58856571785E+03  0.35000000000E+03 0.  0.
       21    1    1    2  504  501  0.51229629773E+02 -0.46265678752E+01  0.46537035564E+02  0.69365522964E+02  0.00000000000E+00 0. -1.
       -3    1    1    2    0  502  0.34826646996E+02  0.10652162403E+03 -0.23070723776E+03  0.25648700021E+03  0.00000000000E+00 0. -1.
<scales pt_clust_1="13000.00000" pt_clust_2="13000.00000" pt_clust_3="51.43812" pt_clust_4="112.30443"></scales>
<clustering>
<clus scale="   51.438">  1  5  2 -1</clus>
<clus scale="  112.304">  2  6  1 -1</clus>
<clus scale="  549.900">  2  3  1 -1</clus>
<clus scale="  549.900">  1  3  2 -1</clus>
</clustering>
</event>
<event>
 6   2  0.3464723E-02  0.5049233E+03  0.7816531E-02  0.1012502E+00
       21   -1    0    0  501  502  0.00000000000E+00  0.00000000000E+00  0.40319098565E+03  0.40319098565E+03  0.00000000000E+00 0.  1.
       21   -1    0    0  505  503  0.00000000000E+00  0.00000000000E+00 -0.10528371421E+04  0.10528371421E+04  0.00000000000E+00 0.  1.
  1000006    1    1    2  501    0 -0.26754306634E+03 -0.23225182995E+03  0.48338527880E+02  0.50035669091E+03  0.35000000000E+03 0.  0.
 -1000006    1    1    2    0  504  0.29547043451E+03  0.17805619304E+03 -0.47242096053E+03  0.68168053331E+03  0.35000000000E+03 0.  0.
       21    1    1    2  504  503 -0.38661129373E+01  0.77572628587E+02 -0.22749487250E+03  0.24038797089E+03  0.00000000000E+00 0. -1.
       21    1    1    2  505  502 -0.24061255228E+02 -0.23376991685E+02  0.19311487481E+01  0.33602932594E+02  0.00000000000E+00 0. -1.
<scales pt_clust_1="13000.00000" pt_clust_2="13000.00000" pt_clust_3="77.29958" pt_clust_4="33.54740"></scales>
<clustering>
<clus scale="   33.547">  1  6  2 -1</clus>
<clus scale="   77.300">  2  5  1 -1</clus>
<clus scale="  504.923">  1  3  2 -1</clus>
<clus scale="  504.923">  1  3  2 -1</clus>
</clustering>
</event>
<event>
 6   2  0.3464723E-02  0.5462105E+03  0.7816531E-02  0.1002375E+00
       21   -1    0    0  504  502  0.00000000000E+00  0.00000000000E+00  0.41501814203E+03  0.41501814203E+03  0.00000000000E+00 0.  1.
       21   -1    0    0  505  503  0.00000000000E+00  0.00000000000E+00 -0.10735471392E+04  0.10735471392E+04  0.00000000000E+00 0.  1.
  1000006    1    1    2  501    0  0.25563559838E+03 -0.37189310173E+03 -0.34882203478E+03  0.66920165139E+03  0.35000000000E+03 0.  0.
 -1000006    1    1    2    0  502 -0.23294781343E+03  0.32691381912E+03 -0.37955776919E+02  0.53392693313E+03  0.35000000000E+03 0.  0.
       21    1    1    2  504  503  0.10570362499E+02  0.34628913462E+02 -0.22060527012E+03  0.22355665818E+03  0.00000000000E+00 0.  1.
       21    1    1    2  505  501 -0.33258147447E+02  0.10350369143E+02 -0.51145915315E+02  0.61880038513E+02  0.00000000000E+00 0.  1.
<scales pt_clust_1="13000.00000" pt_clust_2="13000.00000" pt_clust_3="37.03706" pt_clust_4="34.83152"></scales>
<clustering>
<clus scale="   34.832">  2  6  1 -1</clus>
<clus scale="   37.037">  2  5  1 -1</clus>
<clus scale="  546.210">  2  3  1 -1</clus>
<clus scale="  546.210">  1  3  2 -1</clus>
</clustering>
</event>
<event>
 4   0  0.3464723E-02  0.3500570E+03  0.7816531E-02  0.1062592E+00
       21   -1    0    0  501  502  0.00000000000E+00  0.00000000000E+00  0.51928415866E+03  0.51928415866E+03  0.00000000000E+00 0.  1.
       21   -1    0    0  502  503  0.00000000000E+00  0.00000000000E+00 -0.27101826060E+03  0.27101826060E+03  0.00000000000E+00 0.  1.
  1000006    1    1    2  501    0  0.45390998359E+01 -0.43930982335E+01  0.26621673919E+03  0.43978546470E+03  0.35000000000E+03 0.  0.
 -1000006    1    1    2    0  503 -0.45390998359E+01  0.43930982335E+01 -0.17950841132E+02  0.35051695456E+03  0.35000000000E+03 0.  0.
<scales pt_clust_1="13000.00000" pt_clust_2="13000.00000"></scales>
<clustering>
<clus scale="  350.057">  1  3  2 -1</clus>
<clus scale="  350.057">  1  3  2 -1</clus>
</clustering>
</event>
<event>
 4   0  0.3464723E-02  0.3740194E+03  0.7816531E-02  0.1053167E+00
       21   -1    0    0  503  502  0.00000000000E+00  0.00000000000E+00  0.10340141587E+04  0.10340141587E+04  0.00000000000E+00 0. -1.
       21   -1    0    0  501  503  0.00000000000E+00  0.00000000000E+00 -0.15071036978E+03  0.15071036978E+03  0.00000000000E+00 0. -1.
  1000006    1    1    2  501    0  0.12153640442E+03 -0.51180158926E+02  0.25216442506E+03  0.45108469663E+03  0.35000000000E+03 0.  0.
 -1000006    1    1    2    0  502 -0.12153640442E+03  0.51180158926E+02  0.63113936389E+03  0.73363983188E+03  0.35000000000E+03 0.  0.
<scales pt_clust_1="13000.00000" pt_clust_2="13000.00000"></scales>
<clustering>
<clus scale="  374.019">  2  3  1 -1</clus>
<clus scale="  374.019">  1  3  2 -1</clus>
</clustering>
</event>
<event>
 6   2  0.3464723E-02  0.3878716E+03  0.7816531E-02  0.1048062E+00
       21   -1    0    0  505  502  0.00000000000E+00  0.00000000000E+00  0.21106326918E+03  0.21106326918E+03  0.00000000000E+00 0.  1.
       21   -1    0    0  501  503  0.00000000000E+00  0.00000000000E+00 -0.36317718376E+04  0.36317718376E+04  0.00000000000E+00 0.  1.
  1000006    1    1    2  501    0 -0.18838051433E+03  0.13618570667E+03 -0.99418683143E+03  0.10793244279E+04  0.35000000000E+03 0.  0.
 -1000006    1    1    2    0  502  0.63696557931E+02 -0.11962891317E+03 -0.31598698747E+03  0.49062827539E+03  0.35000000000E+03 0.  0.
       21    1    1    2  504  503  0.91730783866E+02 -0.18365297373E+02 -0.21873124317E+04  0.21893121054E+04  0.00000000000E+00 0.  1.
       21    1    1    2  505  504  0.32953172531E+02  0.18085038730E+01  0.76777682115E+02  0.83570298175E+02  0.00000000000E+00 0.  1.
<scales pt_clust_1="13000.00000" pt_clust_2="13000.00000" pt_clust_3="93.79530" pt_clust_4="33.00276"></scales>
<clustering>
<clus scale="   33.003">  1  6  2 -1</clus>
<clus scale="   93.795">  2  5  1 -1</clus>
<clus scale="  387.872">  2  3  1 -1</clus>
<clus scale="  387.872">  1  3  2 -1</clus>
</clustering>
</event>
<event>
 5   1  0.3464723E-02  0.3938290E+03  0.7816531E-02  0.1045938E+00
       21   -1    0    0  501  502  0.00000000000E+00  0.00000000000E+00  0.10584682620E+04  0.10584682620E+04  0.00000000000E+00 0. -1.
       21   -1    0    0  504  503  0.00000000000E+00  0.00000000000E+00 -0.38350975720E+03  0.38350975720E+03  0.00000000000E+00 0. -1.
  1000006    1    1    2  501    0 -0.13893287647E+03  0.12277623904E+03  0.63968462765E+03  0.75237807775E+03  0.35000000000E+03 0.  0.
 -1000006    1    1    2    0  503  0.14718289513E+03 -0.91160258167E+02  0.25570996110E+03  0.46675537650E+03  0.35000000000E+03 0.  0.
       21    1    1    2  504  502 -0.82500186536E+01 -0.31615980869E+02 -0.22043608390E+03  0.22284456498E+03  0.00000000000E+00 0. -1.
<scales pt_clust_1="13000.00000" pt_clust_2="13000.00000" pt_clust_3="32.67465"></scales>
<clustering>
<clus scale="   32.675">  2  5  1 -1</clus>
<clus scale="  393.829">  2  4  1 -1</clus>
<clus scale="  393.829">  1  3  2 -1</clus>
</clustering>
</event>
<event>
 5   1  0.3464723E-02  0.3678848E+03  0.7816531E-02  0.1055505E+00
       21   -1    0    0  501  502  0.00000000000E+00  0.00000000000E+00  0.18837162851E+03  0.18837162851E+03  0.00000000000E+00 0. -1.
       21   -1    0    0  504  503  0.00000000000E+00  0.00000000000E+00 -0.98241395727E+03  0.98241395727E+03  0.00000000000E+00 0. -1.
  1000006    1    1    2  501    0  0.27691988967E+02  0.11095026311E+03 -0.18902280355E+03  0.41389180639E+03  0.35000000000E+03 0.  0.
 -1000006    1    1    2    0  503  0.49086167155E+02 -0.11737364042E+03 -0.45267417578E+03  0.58617397818E+03  0.35000000000E+03 0.  0.
       21    1    1    2  504  502 -0.76778156122E+02  0.64233773020E+01 -0.15234534943E+03  0.17071980121E+03  0.00000000000E+00 0. -1.
<scales pt_clust_1="13000.00000" pt_clust_2="13000.00000" pt_clust_3="77.04638"></scales>
<clustering>
<clus scale="   77.046">  2  5  1 -1</clus>
<clus scale="  367.885">  1  3  2 -1</clus>
<clus scale="  367.885">  1  3  2 -1</clus>
</clustering>
</event>
<event>
 5   1  0.3464723E-02  0.3516400E+03  0.7816531E-02  0.1061944E+00
        1   -1    0    0  503    0  0.00000000000E+00  0.00000000000E+00  0.11824633547E+04  0.11824633547E+04  0.00000000000E+00 0.  1.
       21   -1    0    0  501  503  0.00000000000E+00  0.00000000000E+00 -0.27105953153E+03  0.27105953153E+03  0.00000000000E+00 0.  1.
  1000006    1    1    2  501    0  0.45237518425E+02  0.66936551618E+02  0.54735510195E+02  0.36334957148E+03  0.35000000000E+03 0.  0.
 -1000006    1    1    2    0  502 -0.16881268918E+02  0.86105933762E+02  0.19441188306E+03  0.40987216220E+03  0.35000000000E+03 0.  0.
        1    1    1    2  502    0 -0.28356249507E+02 -0.15304248538E+03  0.66225642991E+03  0.68030115256E+03  0.00000000000E+00 0.  1.
<scales pt_clust_1="13000.00000" pt_clust_2="13000.00000" pt_clust_3="155.64729"></scales>
<clustering>
<clus scale="  155.647">  1  5  2 -1</clus>
<clus scale="  351.640">  2  3  1 -1</clus>
<clus scale="  351.640">  2  3  1 -1</clus>
</clustering>
</event>
<event>
 5   1  0.3464723E-02  0.4135315E+03  0.7816531E-02  0.1039192E+00
        2   -1    0    0  503    0  0.00000000000E+00  0.00000000000E+00  0.81197492405E+03  0.81197492405E+03  0.00000000000E+00 0.  1.
       21   -1    0    0  501  503  0.00000000000E+00  0.00000000000E+00 -0.40977845058E+03  0.40977845058E+03  0.00000000000E+00 0.  1.
  1000006    1    1    2  501    0  0.22074980482E+03 -0.53619881149E+02 -0.76813432570E+02  0.42427098817E+03  0.35000000000E+03 0.  0.
 -1000006    1    1    2    0  502 -0.21920683137E+03 -0.11287394221E+03  0.19993021659E+03  0.47250846898E+03  0.35000000000E+03 0.  0.
        2    1    1    2  502    0 -0.15429734506E+01  0.16649382336E+03  0.27907968944E+03  0.32497391748E+03  0.00000000000E+00 0.  1.
<scales pt_clust_1="13000.00000" pt_clust_2="13000.00000" pt_clust_3="166.50097"></scales>
<clustering>
<clus scale="  166.501">  1  5  2 -1</clus>
<clus scale="  413.531">  1  4  2 -1</clus>
<clus scale="  413.531">  2  3  1 -1</clus>
</clustering>
</event>
<event>
 5   1  0.3464723E-02  0.3629289E+03  0.7816531E-02  0.1057430E+00
       21   -1    0    0  504  502  0.00000000000E+00  0.00000000000E+00  0.75083651292E+03  0.75083651292E+03  0.00000000000E+00 0. -1.
       21   -1    0    0  501  503  0.00000000000E+00  0.00000000000E+00 -0.22550214826E+03  0.22550214826E+03  0.00000000000E+00 0. -1.
  1000006    1    1    2  501    0  0.69832372150E+02 -0.92635859939E+02  0.14697784230E+03  0.39693884778E+03  0.35000000000E+03 0.  0.
 -1000006    1    1    2    0  502 -0.27520894062E+02  0.67905698225E+02  0.23499195571E+03  0.42788994229E+03  0.35000000000E+03 0.  0.
       21    1    1    2  504  503 -0.42311478088E+02  0.24730161714E+02  0.14336456665E+03  0.15150987112E+03  0.00000000000E+00 0. -1.
<scales pt_clust_1="13000.00000" pt_clust_2="13000.00000" pt_clust_3="49.00859"></scales>
<clustering>
<clus scale="   49.009">  1  5  2 -1</clus>
<clus scale="  362.929">  2  3  1 -1</clus>
<clus scale="  362.929">  1  3  2 -1</clus>
</clustering>
</event>
<event>
 5   1  0.3464723E-02  0.3865090E+03  0.7816531E-02  0.1048554E+00
       21   -1    0    0  501  502  0.00000000000E+00  0.00000000000E+00  0.15500597139E+04  0.15500597139E+04  0.00000000000E+00 0.  1.
       21   -1    0    0  504  503  0.00000000000E+00  0.00000000000E+00 -0.11639366727E+03  0.11639366727E+03  0.00000000000E+00 0.  1.
  1000006    1    1    2  501    0  0.67539238291E+02 -0.14582453644E+03  0.76452304935E+03  0.85605013704E+03  0.35000000000E+03 0.  0.
 -1000006    1    1    2    0  503 -0.12777481139E+03  0.11994036389E+03  0.58096531797E+03  0.70052322874E+03  0.35000000000E+03 0.  0.
       21    1    1    2  504  502  0.60235573104E+02  0.25884172546E+02  0.88177679340E+02  0.10988001542E+03  0.00000000000E+00 0.  1.
<scales pt_clust_1="13000.00000" pt_clust_2="13000.00000" pt_clust_3="65.56153"></scales>
<clustering>
<clus scale="   65.562">  2  5  1 -1</clus>
<clus scale="  386.509">  1  3  2 -1</clus>
<clus scale="  386.509">  1  3  2 -1</clus>
</clustering>
</event>
<event>
 5   1  0.3464723E-02  0.4476424E+03  0.7816531E-02  0.1028427E+00
       21   -1    0    0  501  502  0.00000000000E+00  0.00000000000E+00  0.21151322727E+04  0.21151322727E+04  0.00000000000E+00 0.  1.
       21   -1    0    0  504  503  0.00000000000E+00  0.00000000000E+00 -0.21956521387E+03  0.21956521387E+03  0.00000000000E+00 0.  1.
  1000006    1    1    2  501    0 -0.22356851737E+03 -0.31020525471E+03  0.14418585566E+04  0.15322096068E+04  0.35000000000E+03 0.  0.
 -1000006    1    1    2    0  503  0.48492388565E+02  0.75176716022E+02  0.31024334226E+03  0.47618691897E+03  0.35000000000E+03 0.  0.
       21    1    1    2  504  502  0.17507612881E+03  0.23502853869E+03  0.14346515998E+03  0.32630096078E+03  0.00000000000E+00 0.  1.
<scales pt_clust_1="13000.00000" pt_clust_2="13000.00000" pt_clust_3="293.07007"></scales>
<clustering>
<clus scale="  293.070">  2  5  1 -1</clus>
<clus scale="  447.642">  1  3  2 -1</clus>
<clus scale="  447.642">  1  3  2 -1</clus>
</clustering>
</event>
<event>
 5   1  0.3464723E-02  0.5249346E+03  0.7816531E-02  0.1007468E+00
       21   -1    0    0  504  502  0.00000000000E+00  0.00000000000E+00  0.62286575369E+03  0.62286575369E+03  0.00000000000E+00 0.  1.
       21   -1    0    0  501  503  0.00000000000E+00  0.00000000000E+00 -0.16447958308E+04  0.16447958308E+04  0.00000000000E+00 0. -1.
  1000006    1    1    2  501    0  0.38198839156E+03 -0.15041716710E+02 -0.89849198973E+02  0.52603637050E+03  0.35000000000E+03 0.  0.
 -1000006    1    1    2    0  502 -0.38614477823E+03  0.10357961283E+03  0.22797026024E+03  0.57819284456E+03  0.35000000000E+03 0.  0.
       21    1    1    2  504  503  0.41563866672E+01 -0.88537896115E+02 -0.11600511384E+04  0.11634323694E+04  0.00000000000E+00 0. -1.
<scales pt_clust_1="13000.00000" pt_clust_2="13000.00000" pt_clust_3="88.63540"></scales>
<clustering>
<clus scale="   88.635">  2  5  1 -1</clus>
<clus scale="  524.935">  2  3  1 -1</clus>
<clus scale="  524.935">  1  3  2 -1</clus>
</clustering>
</event>
<event>
 5   1  0.3464723E-02  0.3764011E+03  0.7816531E-02  0.1052272E+00
       21   -1    0    0  503  502  0.00000000000E+00  0.00000000000E+00  0.51510231297E+03  0.51510231297E+03  0.00000000000E+00 0.  1.
       21   -1    0    0  504  503  0.00000000000E+00  0.00000000000E+00 -0.42901461720E+03  0.42901461720E+03  0.00000000000E+00 0.  1.
  1000006    1    1    2  501    0  0.10200343577E+03  0.71604591219E+02  0.51598670079E+02  0.37509244347E+03  0.35000000000E+03 0.  0.
 -1000006    1    1    2    0  502 -0.13242878243E+03 -0.68971008192E+02  0.17957228734E+03  0.42076191459E+03  0.35000000000E+03 0.  0.
       21    1    1    2  504  501  0.30425346656E+02 -0.26335830271E+01 -0.14508326165E+03  0.14826257211E+03  0.00000000000E+00 0.  1.
<scales pt_clust_1="13000.00000" pt_clust_2="13000.00000" pt_clust_3="30.53911"></scales>
<clustering>
<clus scale="   30.539">  2  5  1 -1</clus>
<clus scale="  376.401">  1  4  2 -1</clus>
<clus scale="  376.401">  1  3  2 -1</clus>
</clustering>
</event>
<event>
 6   2  0.3464723E-02  0.4232511E+03  0.7816531E-02  0.1036013E+00
       21   -1    0    0  501  502  0.00000000000E+00  0.00000000000E+00  0.17969620669E+04  0.17969620669E+04  0.00000000000E+00 0.  1.
       21   -1    0    0  504  503  0.00000000000E+00  0.00000000000E+00 -0.16297631258E+04  0.16297631258E+04  0.00000000000E+00 0. -1.
  1000006    1    1    2  501    0  0.25864543715E+03  0.10870962513E+03  0.13286456020E+04  0.14023246345E+04  0.35000000000E+03 0.  0.
 -1000006    1    1    2    0  505 -0.18530645597E+03  0.88741188350E+01  0.30669514270E+03  0.50097818631E+03  0.35000000000E+03 0.  0.
       21    1    1    2  504  502 -0.27998940937E+02  0.21780889417E+02  0.10921231641E+02  0.37116319024E+02  0.00000000000E+00 0. -1.
       21    1    1    2  505  503 -0.45340040250E+02 -0.13936463338E+03 -0.14790630353E+04  0.14863060528E+04  0.00000000000E+00 0. -1.
<scales pt_clust_1="13000.00000" pt_clust_2="13000.00000" pt_clust_3="35.47320" pt_clust_4="146.52990"></scales>
<clustering>
<clus scale="   35.473">  1  5  2 -1</clus>
<clus scale="  146.530">  2  6  1 -1</clus>
<clus scale="  423.251">  2  4  1 -1</clus>
<clus scale="  423.251">  1  3  2 -1</clus>
</clustering>
</event>
<event>
 5   1  0.3464723E-02  0.3630773E+03  0.7816531E-02  0.1057372E+00
       21   -1    0    0  504  502  0.00000000000E+00  0.00000000000E+00  0.12248414898E+04  0.12248414898E+04  0.00000000000E+00 0.  1.
       21   -1    0    0  502  503  0.00000000000E+00  0.00000000000E+00 -0.22358266939E+03  0.22358266939E+03  0.00000000000E+00 0.  1.
  1000006    1    1    2  501    0  0.27049820900E+01  0.25961913600E+02  0.59516793527E+03  0.69094587997E+03  0.35000000000E+03 0.  0.
 -1000006    1    1    2    0  503  0.47879741539E+02 -0.10970090719E+03  0.32540633835E+02  0.37132957267E+03  0.35000000000E+03 0.  0.
       21    1    1    2  504  501 -0.50584723629E+02  0.83738993588E+02  0.37355025130E+03  0.38614870653E+03  0.00000000000E+00 0.  1.
<scales pt_clust_1="13000.00000" pt_clust_2="13000.00000" pt_clust_3="97.83166"></scales>
<clustering>
<clus scale="   97.832">  1  5  2 -1</clus>
<clus scale="  363.077">  1  3  2 -1</clus>
<clus scale="  363.077">  1  3  2 -1</clus>
</clustering>
</event>
<event>
 6   2  0.3464723E-02  0.3999007E+03  0.7816531E-02  0.1043814E+00
       21   -1    0    0  504  502  0.00000000000E+00  0.00000000000E+00  0.46024410709E+03  0.46024410709E+03  0.00000000000E+00 0. -1.
       21   -1    0    0  505  503  0.00000000000E+00  0.00000000000E+00 -0.68391907884E+03  0.68391907884E+03  0.00000000000E+00 0. -1.
  1000006    1    1    2  501    0  0.13384466640E+02 -0.24075177507E+03 -0.17509350024E+03  0.45967194277E+03  0.35000000000E+03 0.  0.
 -1000006    1    1    2    0  502 -0.32778434322E+02  0.17204290276E+03  0.17971237420E+03  0.43066195976E+03  0.35000000000E+03 0.  0.
       21    1    1    2  504  503  0.46998303660E+02  0.23581425153E+02 -0.74469138101E+02  0.91162364431E+02  0.00000000000E+00 0.  1.
       21    1    1    2  505  501 -0.27604335977E+02  0.45127447167E+02 -0.15382470762E+03  0.16266691897E+03  0.00000000000E+00 0. -1.
<scales pt_clust_1="13000.00000" pt_clust_2="13000.00000" pt_clust_3="52.58255" pt_clust_4="53.54748"></scales>
<clustering>
<clus scale="   52.583">  2  5  1 -1</clus>
<clus scale="   53.547">  2  6  1 -1</clus>
<clus scale="  399.901">  1  4  2 -1</clus>
<clus scale="  399.901">  1  3  2 -1</clus>
</clustering>
</event>
<event>
 5   1  0.3464723E-02  0.3742348E+03  0.7816531E-02  0.1053085E+00
       21   -1    0    0  504  502  0.00000000000E+00  0.00000000000E+00  0.59733344899E+03  0.59733344899E+03  0.00000000000E+00 0.  1.
       21   -1    0    0  501  503  0.00000000000E+00  0.00000000000E+00 -0.60583951490E+03  0.60583951490E+03  0.00000000000E+00 0.  1.
  1000006    1    1    2  501    0  0.10254372353E+03  0.81116013538E+02 -0.28844989779E+03  0.47201521842E+03  0.35000000000E+03 0.  0.
 -1000006    1    1    2    0  502 -0.13616127669E+03 -0.39968634988E+02 -0.64065730317E+02  0.38306892703E+03  0.35000000000E+03 0.  0.
       21    1    1    2  504  503  0.33617553165E+02 -0.41147378551E+02  0.34400956220E+03  0.34808881844E+03  0.00000000000E+00 0.  1.
<scales pt_clust_1="13000.00000" pt_clust_2="13000.00000" pt_clust_3="53.13423"></scales>
<clustering>
<clus scale="   53.134">  1  5  2 -1</clus>
<clus scale="  374.235">  1  4  2 -1</clus>
<clus scale="  374.235">  1  3  2 -1</clus>
</clustering>
</event>
<event>
 5   1  0.3464723E-02  0.4422068E+03  0.7816531E-02  0.1030072E+00
       21   -1    0    0  501  503  0.00000000000E+00  0.00000000000E+00  0.16478713708E+03  0.16478713708E+03  0.00000000000E+00 0.  1.
        2   -1    0    0  503    0  0.00000000000E+00  0.00000000000E+00 -0.20776459677E+04  0.20776459677E+04  0.00000000000E+00 0. -1.
  1000006    1    1    2  501    0 -0.25887556696E+03  0.33087237078E+02 -0.27160513946E+03  0.51417961473E+03  0.35000000000E+03 0.  0.
 -1000006    1    1    2    0  502  0.29390284404E+03 -0.65502587307E+02 -0.12223566176E+04  0.13066465365E+04  0.35000000000E+03 0.  0.
        2    1    1    2  502    0 -0.35027277083E+02  0.32415350229E+02 -0.41889707357E+03  0.42160695359E+03  0.00000000000E+00 0. -1.
<scales pt_clust_1="13000.00000" pt_clust_2="13000.00000" pt_clust_3="47.72489"></scales>
<clustering>
<clus scale="   47.725">  2  5  1 -1</clus>
<clus scale="  442.207">  1  3  2 -1</clus>
<clus scale="  442.207">  1  3  2 -1</clus>
</clustering>
</event>
<event>
 5   1  0.3464723E-02  0.3569553E+03  0.7816531E-02  0.1059796E+00
       21   -1    0    0  504  502  0.00000000000E+00  0.00000000000E+00  0.17085584490E+03  0.17085584490E+03  0.00000000000E+00 0. -1.
       21   -1    0    0  501  503  0.00000000000E+00  0.00000000000E+00 -0.14377243596E+04  0.14377243596E+04  0.00000000000E+00 0. -1.
  1000006    1    1    2  501    0  0.28252685392E+02  0.52716208016E+02 -0.10740050943E+04  0.11311782156E+04  0.35000000000E+03 0.  0.
 -1000006    1    1    2    0  502 -0.84227330565E+02 -0.77564098636E+02 -0.19383577231E+03  0.41615230294E+03  0.35000000000E+03 0.  0.
       21    1    1    2  504  503  0.55974645173E+02  0.24847890619E+02  0.97235185614E+00  0.61249686029E+02  0.00000000000E+00 0.  1.
<scales pt_clust_1="13000.00000" pt_clust_2="13000.00000" pt_clust_3="61.24197"></scales>
<clustering>
<clus scale="   61.242">  1  5  2 -1</clus>
<clus scale="  356.955">  2  3  1 -1</clus>
<clus scale="  356.955">  1  3  2 -1</clus>
</clustering>
</event>
<event>
 4   0  0.3464723E-02  0.4014035E+03  0.7816531E-02  0.1043295E+00
       21   -1    0    0  501  502  0.00000000000E+00  0.00000000000E+00  0.57447287021E+03  0.57447287021E+03  0.00000000000E+00 0.  1.
       21   -1    0    0  502  503  0.00000000000E+00  0.00000000000E+00 -0.55510368371E+03  0.55510368371E+03  0.00000000000E+00 0.  1.
  1000006    1    1    2  501    0 -0.18297204682E+03  0.71735400170E+02  0.40694228143E+03  0.57160017317E+03  0.35000000000E+03 0.  0.
 -1000006    1    1    2    0  503  0.18297204682E+03 -0.71735400170E+02 -0.38757309494E+03  0.55797638075E+03  0.35000000000E+03 0.  0.
<scales pt_clust_1="13000.00000" pt_clust_2="13000.00000"></scales>
<clustering>
<clus scale="  401.403">  1  3  2 -1</clus>
<clus scale="  401.403">  1  3  2 -1</clus>
</clustering>
</event>
<event>
 5   1  0.3464723E-02  0.4213850E+03  0.7816531E-02  0.1036616E+00
       21   -1    0    0  504  502  0.00000000000E+00  0.00000000000E+00  0.16981747664E+04  0.16981747664E+04  0.00000000000E+00 0. -1.
       21   -1    0    0  501  503  0.00000000000E+00  0.00000000000E+00 -0.12498914741E+03  0.12498914741E+03  0.00000000000E+00 0.  1.
  1000006    1    1    2  501    0 -0.73371270719E+01  0.25584374482E+03  0.61702968689E+03  0.75414553616E+03  0.35000000000E+03 0.  0.
 -1000006    1    1    2    0  502  0.46541275714E+01 -0.22116422499E+03  0.94621926758E+03  0.10328437334E+04  0.35000000000E+03 0.  0.
       21    1    1    2  504  503  0.26829995005E+01 -0.34679519834E+02  0.99366644798E+01  0.36174644203E+02  0.00000000000E+00 0.  1.
<scales pt_clust_1="13000.00000" pt_clust_2="13000.00000" pt_clust_3="34.78315"></scales>
<clustering>
<clus scale="   34.783">  2  5  1 -1</clus>
<clus scale="  421.385">  2  3  1 -1</clus>
<clus scale="  421.385">  1  3  2 -1</clus>
</clustering>
</event>
<event>
 5   1  0.3464723E-02  0.3577325E+03  0.7816531E-02  0.1059485E+00
       21   -1    0    0  502  503  0.00000000000E+00  0.00000000000E+00  0.11995850927E+03  0.11995850927E+03  0.00000000000E+00 0.  1.
        2   -1    0    0  501    0  0.00000000000E+00  0.00000000000E+00 -0.21503825621E+04  0.21503825621E+04  0.00000000000E+00 0.  1.
  1000006    1    1    2  501    0  0.81090677359E+02  0.12997405310E+02 -0.56701495730E+03  0.67137961862E+03  0.35000000000E+03 0.  0.
 -1000006    1    1    2    0  503 -0.67441401262E+02  0.26769307603E+02 -0.40684240855E+03  0.54155856916E+03  0.35000000000E+03 0.  0.
        2    1    1    2  502    0 -0.13649276097E+02 -0.39766712913E+02 -0.10565666870E+04  0.10574028836E+04  0.00000000000E+00 0.  1.
<scales pt_clust_1="13000.00000" pt_clust_2="13000.00000" pt_clust_3="42.04396"></scales>
<clustering>
<clus scale="   42.044">  2  5  1 -1</clus>
<clus scale="  357.732">  1  4  2 -1</clus>
<clus scale="  357.732">  1  3  2 -1</clus>
</clustering>
</event>
<event>
 6   2  0.3464723E-02  0.3717283E+03  0.7816531E-02  0.1054034E+00
        1   -1    0    0  502    0  0.00000000000E+00  0.00000000000E+00  0.35162967398E+04  0.35162967398E+04  0.00000000000E+00 0. -1.
       -2   -1    0    0    0  501  0.00000000000E+00  0.00000000000E+00 -0.54449005505E+03  0.54449005505E+03  0.00000000000E+00 0.  1.
  1000006    1    1    2  502    0 -0.85064433578E+02 -0.23612262557E+03  0.39660115112E+03  0.58547615258E+03  0.35000000000E+03 0.  0.
 -1000006    1    1    2    0  501 -0.42019912175E+02 -0.16877557398E+02  0.11422085208E+03  0.37094059904E+03  0.35000000000E+03 0.  0.
        1    1    1    2  503    0  0.29097589506E+00  0.51365728598E+02  0.27383140087E+04  0.27387957450E+04  0.00000000000E+00 0. -1.
       -2    1    1    2    0  503  0.12679336986E+03  0.20163445437E+03 -0.27732932713E+03  0.36557429822E+03  0.00000000000E+00 0.  1.
<scales pt_clust_1="13000.00000" pt_clust_2="13000.00000" pt_clust_3="51.36655" pt_clust_4="240.66748"></scales>
<clustering>
<clus scale="   51.367">  1  5  2 -1</clus>
<clus scale="  240.667">  2  6  1 -1</clus>
<clus scale="  371.728">  1  3  2 -1</clus>
<clus scale="  371.728">  1  3  2 -1</clus>
</clustering>
</event>
<event>
 6   2  0.3464723E-02  0.4046429E+03  0.7816531E-02  0.1042184E+00
       21   -1    0    0  504  503  0.00000000000E+00  0.00000000000E+00  0.34498745057E+03  0.34498745057E+03  0.00000000000E+00 0.  1.
        2   -1    0    0  501    0  0.00000000000E+00  0.00000000000E+00 -0.38009937157E+04  0.38009937157E+04  0.00000000000E+00 0.  1.
  1000006    1    1    2  501    0 -0.75353003628E+02 -0.18298043817E+03 -0.48206801771E+03  0.62773361357E+03  0.35000000000E+03 0.  0.
 -1000006    1    1    2    0  503  0.94425338422E+01  0.19136924763E+03  0.19810610692E+02  0.39950445640E+03  0.35000000000E+03 0.  0.
       21    1    1    2  504  502 -0.29051176879E+02  0.28820455607E+02  0.54852986540E+02  0.68435660820E+02  0.00000000000E+00 0.  1.
        2    1    1    2  502    0  0.94961646664E+02 -0.37209265068E+02 -0.30486018446E+04  0.30503074355E+04  0.00000000000E+00 0.  1.
<scales pt_clust_1="13000.00000" pt_clust_2="13000.00000" pt_clust_3="40.92175" pt_clust_4="101.87835"></scales>
<clustering>
<clus scale="   40.922">  1  5  2 -1</clus>
<clus scale="  101.878">  2  6  1 -1</clus>
<clus scale="  404.643">  1  4  2 -1</clus>
<clus scale="  404.643">  1  3  2 -1</clus>
</clustering>
</event>
<event>
 6   2  0.3464723E-02  0.4513420E+03  0.7816531E-02  0.1027323E+00
        2   -1    0    0  502    0  0.00000000000E+00  0.00000000000E+00  0.15360270382E+04  0.15360270382E+04  0.00000000000E+00 0.  1.
       -3   -1    0    0    0  501  0.00000000000E+00  0.00000000000E+00 -0.16958984902E+04  0.16958984902E+04  0.00000000000E+00 0. -1.
  1000006    1    1    2  502    0  0.19675095761E+03 -0.16274894734E+03 -0.21777200024E+03  0.48489463110E+03  0.35000000000E+03 0.  0.
 -1000006    1    1    2    0  501 -0.80130834788E+01  0.27110731577E+03 -0.71017996679E+03  0.83691037238E+03  0.35000000000E+03 0.  0.
        2    1    1    2  503    0 -0.22282772780E+03 -0.32258064421E+03  0.12882214947E+04  0.13465604657E+04  0.00000000000E+00 0.  1.
       -3    1    1    2    0  503  0.34089853663E+02  0.21422227578E+03 -0.52014097973E+03  0.56356005923E+03  0.00000000000E+00 0. -1.
<scales pt_clust_1="13000.00000" pt_clust_2="13000.00000" pt_clust_3="387.12171" pt_clust_4="216.91773"></scales>
<clustering>
<clus scale="  216.918">  2  6  1 -1</clus>
<clus scale="  387.122">  1  5  2 -1</clus>
<clus scale="  451.342">  2  4  1 -1</clus>
<clus scale="  451.342">  1  3  2 -1</clus>
</clustering>
</event>
<event>
 6   2  0.3464723E-02  0.7155894E+03  0.7816531E-02  0.9690938E-01
        2   -1    0    0  501    0  0.00000000000E+00  0.00000000000E+00  0.17194622134E+04  0.17194622134E+04  0.00000000000E+00 0. -1.
       21   -1    0    0  504  503  0.00000000000E+00  0.00000000000E+00 -0.10988770854E+04  0.10988770854E+04  0.00000000000E+00 0. -1.
  1000006    1    1    2  501    0  0.45578804501E+03 -0.20368318642E+03  0.25336631366E+03  0.66024546291E+03  0.35000000000E+03 0.  0.
 -1000006    1    1    2    0  503 -0.31072676125E+03  0.66717956748E+03 -0.47314012819E+03  0.94235941993E+03  0.35000000000E+03 0.  0.
       21    1    1    2  504  502  0.84305246092E+02 -0.33755355885E+03  0.13199158230E+02  0.34817236735E+03  0.00000000000E+00 0. -1.
        2    1    1    2  502    0 -0.22936652985E+03 -0.12594282221E+03  0.82715978424E+03  0.86756204858E+03  0.00000000000E+00 0. -1.
<scales pt_clust_1="13000.00000" pt_clust_2="13000.00000" pt_clust_3="365.50262" pt_clust_4="261.66887"></scales>
<clustering>
<clus scale="  261.669">  1  6  2 -1</clus>
<clus scale="  365.503">  1  5  2 -1</clus>
<clus scale="  715.589">  1  3  2 -1</clus>
<clus scale="  715.589">  2  3  1 -1</clus>
</clustering>
</event>
<event>
 5   1  0.3464723E-02  0.3644554E+03  0.7816531E-02  0.1056834E+00
       21   -1    0    0  503  502  0.00000000000E+00  0.00000000000E+00  0.22650272825E+03  0.22650272825E+03  0.00000000000E+00 0. -1.
       21   -1    0    0  504  503  0.00000000000E+00  0.00000000000E+00 -0.76350231747E+03  0.76350231747E+03  0.00000000000E+00 0. -1.
  1000006    1    1    2  501    0 -0.77260941358E+02  0.33440720042E+02 -0.27022938405E+03  0.45012382165E+03  0.35000000000E+03 0.  0.
 -1000006    1    1    2    0  502  0.11269333808E+03 -0.21782643231E+02 -0.11841138149E+03  0.38690506233E+03  0.35000000000E+03 0.  0.
       21    1    1    2  504  501 -0.35432396720E+02 -0.11658076811E+02 -0.14835882368E+03  0.15297616173E+03  0.00000000000E+00 0.  1.
<scales pt_clust_1="13000.00000" pt_clust_2="13000.00000" pt_clust_3="37.30101"></scales>
<clustering>
<clus scale="   37.301">  2  5  1 -1</clus>
<clus scale="  364.455">  2  3  1 -1</clus>
<clus scale="  364.455">  1  3  2 -1</clus>
</clustering>
</event>
<event>
 6   2  0.3464723E-02  0.3637732E+03  0.7816531E-02  0.1057100E+00
       21   -1    0    0  501  502  0.00000000000E+00  0.00000000000E+00  0.76064544154E+03  0.76064544154E+03  0.00000000000E+00 0.  1.
       21   -1    0    0  504  503  0.00000000000E+00  0.00000000000E+00 -0.26536400556E+03  0.26536400556E+03  0.00000000000E+00 0.  1.
  1000006    1    1    2  501    0 -0.95243895634E+02  0.66618226132E+02  0.25133876487E+03  0.44629649610E+03  0.35000000000E+03 0.  0.
 -1000006    1    1    2    0  503  0.90123484840E+02  0.90689554544E+01  0.18420854534E+03  0.40575519300E+03  0.35000000000E+03 0.  0.
       21    1    1    2  504  505  0.39724959139E+02 -0.45395608474E+02 -0.34219032371E+02  0.69352547348E+02  0.00000000000E+00 0. -1.
       21    1    1    2  505  502 -0.34604548345E+02 -0.30291573112E+02  0.93953158145E+02  0.10460521064E+03  0.00000000000E+00 0.  1.
<scales pt_clust_1="13000.00000" pt_clust_2="13000.00000" pt_clust_3="60.33531" pt_clust_4="45.98972"></scales>
<clustering>
<clus scale="   45.990">  1  6  2 -1</clus>
<clus scale="   60.335">  2  5  1 -1</clus>
<clus scale="  363.773">  2  4  1 -1</clus>
<clus scale="  363.773">  1  3  2 -1</clus>
</clustering>
</event>
<event>
 5   1  0.3464723E-02  0.4950887E+03  0.7816531E-02  0.1015069E+00
       21   -1    0    0  504  502  0.00000000000E+00  0.00000000000E+00  0.25651760529E+04  0.25651760529E+04  0.00000000000E+00 0.  1.
       21   -1    0    0  501  503  0.00000000000E+00  0.00000000000E+00 -0.10945793437E+03  0.10945793437E+03  0.00000000000E+00 0. -1.
  1000006    1    1    2  501    0 -0.25627140001E+03 -0.27274881448E+03  0.97285392148E+03  0.10995506804E+04  0.35000000000E+03 0.  0.
 -1000006    1    1    2    0  502  0.20760676576E+03  0.24169683911E+03  0.13237726013E+04  0.14058420363E+04  0.35000000000E+03 0.  0.
       21    1    1    2  504  503  0.48664634253E+02  0.31051975363E+02  0.15909159577E+03  0.16924127051E+03  0.00000000000E+00 0.  1.
<scales pt_clust_1="13000.00000" pt_clust_2="13000.00000" pt_clust_3="57.72757"></scales>
<clustering>
<clus scale="   57.728">  1  5  2 -1</clus>
<clus scale="  495.089">  1  4  2 -1</clus>
<clus scale="  495.089">  1  3  2 -1</clus>
</clustering>
</event>
<event>
 5   1  0.3464723E-02  0.3796621E+03  0.7816531E-02  0.1051059E+00
       21   -1    0    0  503  502  0.00000000000E+00  0.00000000000E+00  0.21730090427E+03  0.21730090427E+03  0.00000000000E+00 0.  1.
       21   -1    0    0  501  503  0.00000000000E+00  0.00000000000E+00 -0.12854713467E+04  0.12854713467E+04  0.00000000000E+00 0.  1.
  1000006    1    1    2  501    0 -0.12886072840E+03  0.51391595114E+02 -0.79845840259E+03  0.88276950788E+03  0.35000000000E+03 0.  0.
 -1000006    1    1    2    0  504  0.16454096957E+03 -0.26438632701E+02 -0.35410745773E+03  0.52503792586E+03  0.35000000000E+03 0.  0.
       21    1    1    2  504  502 -0.35680241176E+02 -0.24952962414E+02  0.84395417913E+02  0.94964817213E+02  0.00000000000E+00 0.  1.
<scales pt_clust_1="13000.00000" pt_clust_2="13000.00000" pt_clust_3="43.53998"></scales>
<clustering>
<clus scale="   43.540">  1  5  2 -1</clus>
<clus scale="  379.662">  2  3  1 -1</clus>
<clus scale="  379.662">  1  3  2 -1</clus>
</clustering>
</event>
<event>
 6   2  0.3464723E-02  0.4087971E+03  0.7816531E-02  0.1040775E+00
        1   -1    0    0  501    0  0.00000000000E+00  0.00000000000E+00  0.76937660501E+03  0.76937660501E+03  0.00000000000E+00 0.  1.
       21   -1    0    0  502  503  0.00000000000E+00  0.00000000000E+00 -0.38629267148E+03  0.38629267148E+03  0.00000000000E+00 0. -1.
  1000006    1    1    2  501    0 -0.98405348317E+02  0.17657361460E+03  0.42977551163E+03  0.58997359631E+03  0.35000000000E+03 0.  0.
 -1000006    1    1    2    0  504  0.17571182197E+03 -0.16347576499E+03  0.57305753325E+02  0.42823231952E+03  0.35000000000E+03 0.  0.
       21    1    1    2  504  503 -0.32949260568E+02  0.82504034207E+01 -0.18170786816E+02  0.38521428090E+02  0.00000000000E+00 0.  1.
        1    1    1    2  502    0 -0.44357213083E+02 -0.21348253035E+02 -0.85826544609E+02  0.98941932565E+02  0.00000000000E+00 0.  1.
<scales pt_clust_1="13000.00000" pt_clust_2="13000.00000" pt_clust_3="33.96650" pt_clust_4="56.24657"></scales>
<clustering>
<clus scale="   33.966">  2  5  1 -1</clus>
<clus scale="   56.247">  2  6  1 -1</clus>
<clus scale="  652.570">  3  4 -1 -1</clus>
<clus scale="  408.797">  2  3  1 -1</clus>
</clustering>
</event>
<event>
 5   1  0.3464723E-02  0.3535896E+03  0.7816531E-02  0.1061151E+00
       21   -1    0    0  501  502  0.00000000000E+00  0.00000000000E+00  0.40418250872E+04  0.40418250872E+04  0.00000000000E+00 0.  1.
       21   -1    0    0  504  503  0.00000000000E+00  0.00000000000E+00 -0.50273630541E+02  0.50273630541E+02  0.00000000000E+00 0.  1.
  1000006    1    1    2  501    0 -0.40141088084E+02  0.79942361229E+02  0.26508221939E+04  0.26753243526E+04  0.35000000000E+03 0.  0.
 -1000006    1    1    2    0  503 -0.40262598410E+02 -0.34547032159E+02  0.91374218327E+03  0.97991803317E+03  0.35000000000E+03 0.  0.
       21    1    1    2  504  502  0.80403686494E+02 -0.45395329071E+02  0.42698707950E+03  0.43685633195E+03  0.00000000000E+00 0.  1.
<scales pt_clust_1="13000.00000" pt_clust_2="13000.00000" pt_clust_3="92.33357"></scales>
<clustering>
<clus scale="   92.334">  1  5  2 -1</clus>
<clus scale="  353.590">  1  3  2 -1</clus>
<clus scale="  353.590">  1  3  2 -1</clus>
</clustering>
</event>
<event>
 6   2  0.3464723E-02  0.5583583E+03  0.7816531E-02  0.9995776E-01
       21   -1    0    0  501  502  0.00000000000E+00  0.00000000000E+00  0.59541857701E+03  0.59541857701E+03  0.00000000000E+00 0. -1.
       21   -1    0    0  505  503  0.00000000000E+00  0.00000000000E+00 -0.74968735926E+03  0.74968735926E+03  0.00000000000E+00 0. -1.
  1000006    1    1    2  501    0  0.13679263296E+03 -0.37817003119E+03  0.19313828608E+03  0.56703368019E+03  0.35000000000E+03 0.  0.
 -1000006    1    1    2    0  504 -0.22939989615E+03  0.39046220905E+03 -0.28217025616E+03  0.63812624340E+03  0.35000000000E+03 0.  0.
       21    1    1    2  504  503  0.30003148037E+02  0.15082418846E+02 -0.63224227614E+02  0.71588904223E+02  0.00000000000E+00 0. -1.
       21    1    1    2  505  502  0.62604115157E+02 -0.27374596702E+02 -0.20125845471E+01  0.68357108451E+02  0.00000000000E+00 0.  1.
<scales pt_clust_1="13000.00000" pt_clust_2="13000.00000" pt_clust_3="33.58077" pt_clust_4="69.44629"></scales>
<clustering>
<clus scale="   33.581">  2  5  1 -1</clus>
<clus scale="   69.446">  1  6  2 -1</clus>
<clus scale="  558.358">  2  4  1 -1</clus>
<clus scale="  558.358">  1  3  2 -1</clus>
</clustering>
</event>
<event>
 5   1  0.3464723E-02  0.3640836E+03  0.7816531E-02  0.1056979E+00
       21   -1    0    0  501  503  0.00000000000E+00  0.00000000000E+00  0.86199233458E+03  0.86199233458E+03  0.00000000000E+00 0.  1.
        2   -1    0    0  503    0  0.00000000000E+00  0.00000000000E+00 -0.89412701420E+03  0.89412701420E+03  0.00000000000E+00 0. -1.
  1000006    1    1    2  501    0  0.90898758748E+02  0.21614105888E+02  0.65417494718E+03  0.74777979073E+03  0.35000000000E+03 0.  0.
 -1000006    1    1    2    0  502 -0.14592151385E+03  0.64117149010E+02 -0.79086220996E+02  0.39263052270E+03  0.35000000000E+03 0.  0.
        2    1    1    2  502    0  0.55022755106E+02 -0.85731254898E+02 -0.60722340580E+03  0.61570903534E+03  0.00000000000E+00 0. -1.
<scales pt_clust_1="13000.00000" pt_clust_2="13000.00000" pt_clust_3="101.86929"></scales>
<clustering>
<clus scale="  101.869">  2  5  1 -1</clus>
<clus scale="  364.084">  2  4  1 -1</clus>
<clus scale="  364.084">  1  3  2 -1</clus>
</clustering>
</event>
<event>
 6   2  0.3464723E-02  0.4161107E+03  0.7816531E-02  0.1038340E+00
       21   -1    0    0  501  503  0.00000000000E+00  0.00000000000E+00  0.91766606791E+03  0.91766606791E+03  0.00000000000E+00 0.  1.
        1   -1    0    0  504    0  0.00000000000E+00  0.00000000000E+00 -0.19902843693E+04  0.19902843693E+04  0.00000000000E+00 0. -1.
  1000006    1    1    2  501    0  0.10350474674E+03  0.14960317524E+03  0.41587602044E+03  0.57319037589E+03  0.35000000000E+03 0.  0.
 -1000006    1    1    2    0  502 -0.16049547304E+03 -0.24828042295E+03  0.27949650036E+03  0.53667518948E+03  0.35000000000E+03 0.  0.
       21    1    1    2  504  503 -0.93917982617E+01  0.58124879556E+02 -0.47001020378E+02  0.75337928128E+02  0.00000000000E+00 0.  1.
        1    1    1    2  502    0  0.66382524563E+02  0.40552368156E+02 -0.17209898018E+04  0.17227469437E+04  0.00000000000E+00 0. -1.
<scales pt_clust_1="13000.00000" pt_clust_2="13000.00000" pt_clust_3="58.87875" pt_clust_4="109.12284"></scales>
<clustering>
<clus scale="   58.879">  2  5  1 -1</clus>
<clus scale="  109.123">  2  6  1 -1</clus>
<clus scale="  416.111">  2  4  1 -1</clus>
<clus scale="  416.111">  1  3  2 -1</clus>
</clustering>
</event>
<event>
 6   2  0.3464723E-02  0.3662094E+03  0.7816531E-02  0.1056152E+00
       21   -1    0    0  505  502  0.00000000000E+00  0.00000000000E+00  0.10901694847E+04  0.10901694847E+04  0.00000000000E+00 0.  1.
       21   -1    0    0  504  503  0.00000000000E+00  0.00000000000E+00 -0.36711421188E+03  0.36711421188E+03  0.00000000000E+00 0.  1.
  1000006    1    1    2  501    0  0.98145829265E+02 -0.45362657261E+02  0.30413528427E+03  0.47611831052E+03  0.35000000000E+03 0.  0.
 -1000006    1    1    2    0  502 -0.11536291408E+03 -0.33299284184E+02  0.54555995860E+03  0.65920642647E+03  0.35000000000E+03 0.  0.
       21    1    1    2  504  501  0.12956378586E+02  0.39642042993E+02 -0.21829993213E+03  0.22224810390E+03  0.00000000000E+00 0.  1.
       21    1    1    2  505  503  0.42607062331E+01  0.39019898451E+02  0.91659962108E+02  0.99710855710E+02  0.00000000000E+00 0. -1.
<scales pt_clust_1="13000.00000" pt_clust_2="13000.00000" pt_clust_3="41.78188" pt_clust_4="39.25183"></scales>
<clustering>
<clus scale="   39.252">  1  6  2 -1</clus>
<clus scale="   41.782">  2  5  1 -1</clus>
<clus scale="  366.209">  2  3  1 -1</clus>
<clus scale="  366.209">  1  3  2 -1</clus>
</clustering>
</event>
<event>
 4   0  0.3464723E-02  0.3826450E+03  0.7816531E-02  0.1049960E+00
       21   -1    0    0  501  502  0.00000000000E+00  0.00000000000E+00  0.56950966211E+03  0.56950966211E+03  0.00000000000E+00 0.  1.
       21   -1    0    0  502  503  0.00000000000E+00  0.00000000000E+00 -0.51321024436E+03  0.51321024436E+03  0.00000000000E+00 0.  1.
  1000006    1    1    2  501    0  0.15388305322E+03  0.15401322883E+02  0.41058460154E+03  0.56124585507E+03  0.35000000000E+03 0.  0.
 -1000006    1    1    2    0  503 -0.15388305322E+03 -0.15401322883E+02 -0.35428518379E+03  0.52147405139E+03  0.35000000000E+03 0.  0.
<scales pt_clust_1="13000.00000" pt_clust_2="13000.00000"></scales>
<clustering>
<clus scale="  382.645">  1  3  2 -1</clus>
<clus scale="  382.645">  1  3  2 -1</clus>
</clustering>
</event>
<event>
 6   2  0.3464723E-02  0.3744774E+03  0.7816531E-02  0.1052994E+00
        2   -1    0    0  504    0  0.00000000000E+00  0.00000000000E+00  0.19187976063E+04  0.19187976063E+04  0.00000000000E+00 0. -1.
       21   -1    0    0  502  503  0.00000000000E+00  0.00000000000E+00 -0.10027939024E+04  0.10027939024E+04  0.00000000000E+00 0. -1.
  1000006    1    1    2  501    0  0.63007060833E+02 -0.15821889644E+03 -0.53529108154E+02  0.39289753667E+03  0.35000000000E+03 0.  0.
 -1000006    1    1    2    0  503 -0.14051608379E+03 -0.11642352954E+03 -0.70300055089E+03  0.80623134557E+03  0.35000000000E+03 0.  0.
       21    1    1    2  504  501  0.33859513271E+02  0.83556639791E+02  0.12852036964E+04  0.12883620299E+04  0.00000000000E+00 0. -1.
        2    1    1    2  502    0  0.43649509682E+02  0.19108578618E+03  0.38732966653E+03  0.43410059658E+03  0.00000000000E+00 0. -1.
<scales pt_clust_1="13000.00000" pt_clust_2="13000.00000" pt_clust_3="90.15641" pt_clust_4="254.01612"></scales>
<clustering>
<clus scale="   90.156">  1  5  2 -1</clus>
<clus scale="  254.016">  1  6  2 -1</clus>
<clus scale="  374.477">  2  4  1 -1</clus>
<clus scale="  374.477">  2  3  1 -1</clus>
</clustering>
</event>
<event>
 6   2  0.3464723E-02  0.3924665E+03  0.7816531E-02  0.1046420E+00
       21   -1    0    0  501  503  0.00000000000E+00  0.00000000000E+00  0.49419612062E+03  0.49419612062E+03  0.00000000000E+00 0. -1.
        4   -1    0    0  504    0  0.00000000000E+00  0.00000000000E+00 -0.15234061619E+04  0.15234061619E+04  0.00000000000E+00 0. -1.
  1000006    1    1    2  501    0  0.98212874835E+02 -0.79121935561E+02  0.36164628390E+02  0.37378326583E+03  0.35000000000E+03 0.  0.
 -1000006    1    1    2    0  502 -0.25637226755E+03 -0.32235176547E+02  0.95470615384E+02  0.44539924178E+03  0.35000000000E+03 0.  0.
       21    1    1    2  504  503 -0.12629543712E+02  0.96628223990E+02 -0.20088723268E+03  0.22327606074E+03  0.00000000000E+00 0. -1.
        4    1    1    2  502    0  0.17078893643E+03  0.14728888117E+02 -0.95995805234E+03  0.97514371413E+03  0.00000000000E+00 0. -1.
<scales pt_clust_1="13000.00000" pt_clust_2="13000.00000" pt_clust_3="97.45008" pt_clust_4="182.95632"></scales>
<clustering>
<clus scale="   97.450">  2  5  1 -1</clus>
<clus scale="  182.956">  2  6  1 -1</clus>
<clus scale="  392.466">  1  3  2 -1</clus>
<clus scale="  392.466">  1  3  2 -1</clus>
</clustering>
</event>
<event>
 5   1  0.3464723E-02  0.5367928E+03  0.7816531E-02  0.1004598E+00
       21   -1    0    0  502  503  0.00000000000E+00  0.00000000000E+00  0.31576150582E+04  0.31576150582E+04  0.00000000000E+00 0.  1.
        1   -1    0    0  501    0  0.00000000000E+00  0.00000000000E+00 -0.12391560136E+03  0.12391560136E+03  0.00000000000E+00 0.  1.
  1000006    1    1    2  501    0 -0.40073003258E+03 -0.99092103514E+02  0.15530315529E+04  0.16446309033E+04  0.35000000000E+03 0.  0.
 -1000006    1    1    2    0  503  0.39583258313E+03  0.68492406564E+02  0.15056211588E+04  0.15971129319E+04  0.35000000000E+03 0.  0.
        1    1    1    2  502    0  0.48974494480E+01  0.30599696950E+02 -0.24953254778E+02  0.39786824308E+02  0.00000000000E+00 0.  1.
<scales pt_clust_1="13000.00000" pt_clust_2="13000.00000" pt_clust_3="30.98913"></scales>
<clustering>
<clus scale="   30.989">  2  5  1 -1</clus>
<clus scale="  536.793">  2  3  1 -1</clus>
<clus scale="  536.793">  1  3  2 -1</clus>
</clustering>
</event>
<event>
 5   1  0.3464723E-02  0.4139972E+03  0.7816531E-02  0.1039038E+00
       21   -1    0    0  503  502  0.00000000000E+00  0.00000000000E+00  0.36911862513E+03  0.36911862513E+03  0.00000000000E+00 0.  1.
       21   -1    0    0  504  503  0.00000000000E+00  0.00000000000E+00 -0.53064517609E+03  0.53064517609E+03  0.00000000000E+00 0.  1.
  1000006    1    1    2  501    0  0.18522937091E+03 -0.11323553635E+03 -0.11797016381E+03  0.42842638351E+03  0.35000000000E+03 0.  0.
 -1000006    1    1    2    0  502 -0.17486160463E+03  0.14156894188E+03  0.27326885471E+01  0.41608390220E+03  0.35000000000E+03 0.  0.
       21    1    1    2  504  501 -0.10367766281E+02 -0.28333405525E+02 -0.46289075706E+02  0.55253515509E+02  0.00000000000E+00 0.  1.
<scales pt_clust_1="13000.00000" pt_clust_2="13000.00000" pt_clust_3="30.17072"></scales>
<clustering>
<clus scale="   30.171">  2  5  1 -1</clus>
<clus scale="  413.997">  2  3  1 -1</clus>
<clus scale="  413.997">  1  3  2 -1</clus>
</clustering>
</event>
<event>
 6   2  0.3464723E-02  0.3846111E+03  0.7816531E-02  0.1049243E+00
       21   -1    0    0  501  503  0.00000000000E+00  0.00000000000E+00  0.15048528841E+04  0.15048528841E+04  0.00000000000E+00 0. -1.
       -2   -1    0    0    0  501  0.00000000000E+00  0.00000000000E+00 -0.11950072505E+04  0.11950072505E+04  0.00000000000E+00 0. -1.
  1000006    1    1    2  502    0 -0.72057908923E+02 -0.11796664227E+03  0.13087106024E+02  0.37653650988E+03  0.35000000000E+03 0.  0.
 -1000006    1    1    2    0  504  0.15485225447E+03  0.13890123961E+03  0.14150529933E+03  0.43104121012E+03  0.35000000000E+03 0.  0.
       21    1    1    2  504  503 -0.45421880107E+02 -0.91664766134E+02  0.10193600332E+04  0.10244805776E+04  0.00000000000E+00 0. -1.
       -2    1    1    2    0  502 -0.37372465440E+02  0.70730168786E+02 -0.86410680500E+03  0.86780183705E+03  0.00000000000E+00 0. -1.
<scales pt_clust_1="13000.00000" pt_clust_2="13000.00000" pt_clust_3="101.93865" pt_clust_4="79.99661"></scales>
<clustering>
<clus scale="   79.997">  2  6  1 -1</clus>
<clus scale="  101.939">  1  5  2 -1</clus>
<clus scale="  384.611">  1  4  2 -1</clus>
<clus scale="  384.611">  1  3  2 -1</clus>
</clustering>
</event>
<event>
 5   1  0.3464723E-02  0.5211174E+03  0.7816531E-02  0.1008409E+00
       -1   -1    0    0    0  501  0.00000000000E+00  0.00000000000E+00  0.17031747563E+03  0.17031747563E+03  0.00000000000E+00 0. -1.
        1   -1    0    0  503    0  0.00000000000E+00  0.00000000000E+00 -0.19874887148E+04  0.19874887148E+04  0.00000000000E+00 0.  1.
  1000006    1    1    2  502    0 -0.26232000292E+03 -0.27710152893E+03 -0.57008568453E+03  0.77012643700E+03  0.35000000000E+03 0.  0.
 -1000006    1    1    2    0  501  0.23443234616E+03  0.31753993118E+03 -0.95072335028E+03  0.10872741244E+04  0.35000000000E+03 0.  0.
       21    1    1    2  503  502  0.27887656757E+02 -0.40438402252E+02 -0.29636220435E+03  0.30040562902E+03  0.00000000000E+00 0.  1.
<scales pt_clust_1="13000.00000" pt_clust_2="13000.00000" pt_clust_3="49.12215"></scales>
<clustering>
<clus scale="   49.122">  2  5  1 -1</clus>
<clus scale="  875.879">  3  4 -1 -1</clus>
<clus scale="  521.117">  2  3  1 -1</clus>
</clustering>
</event>
<event>
 6   2  0.3464723E-02  0.5512991E+03  0.7816531E-02  0.1001194E+00
        2   -1    0    0  501    0  0.00000000000E+00  0.00000000000E+00  0.86106905403E+03  0.86106905403E+03  0.00000000000E+00 0.  1.
       21   -1    0    0  502  503  0.00000000000E+00  0.00000000000E+00 -0.41931158588E+03  0.41931158588E+03  0.00000000000E+00 0. -1.
  1000006    1    1    2  501    0 -0.26952527190E+03 -0.30113497008E+03  0.90913149161E+02  0.54230189294E+03  0.35000000000E+03 0.  0.
 -1000006    1    1    2    0  504  0.32146576025E+03  0.30250617550E+03  0.36266792234E+03  0.66998376332E+03  0.35000000000E+03 0.  0.
       21    1    1    2  504  503 -0.29140377498E+02  0.20111008210E+02 -0.29124869196E+01  0.35526002196E+02  0.00000000000E+00 0.  1.
        2    1    1    2  502    0 -0.22800110848E+02 -0.21482213625E+02 -0.89111164271E+01  0.32568981453E+02  0.00000000000E+00 0.  1.
<scales pt_clust_1="13000.00000" pt_clust_2="13000.00000" pt_clust_3="35.75341" pt_clust_4="31.32620"></scales>
<clustering>
<clus scale="   31.326">  2  6  1 -1</clus>
<clus scale="   35.753">  2  5  1 -1</clus>
<clus scale="  945.358">  3  4 -1 -1</clus>
<clus scale="  551.299">  2  3  1 -1</clus>
</clustering>
</event>
<event>
 5   1  0.3464723E-02  0.4432651E+03  0.7816531E-02  0.1029750E+00
       21   -1    0    0  504  502  0.00000000000E+00  0.00000000000E+00  0.73451470100E+03  0.73451470100E+03  0.00000000000E+00 0.  1.
       21   -1    0    0  501  503  0.00000000000E+00  0.00000000000E+00 -0.38001769724E+03  0.38001769724E+03  0.00000000000E+00 0.  1.
  1000006    1    1    2  501    0  0.95714402581E+02 -0.28886622609E+03 -0.53670727017E+02  0.46688916284E+03  0.35000000000E+03 0.  0.
 -1000006    1    1    2    0  502 -0.11031943103E+03  0.23613574545E+03  0.40065442548E+03  0.59241407461E+03  0.35000000000E+03 0.  0.
       21    1    1    2  504  503  0.14605028448E+02  0.52730480641E+02  0.75133052898E+01  0.55229160784E+02  0.00000000000E+00 0.  1.
<scales pt_clust_1="13000.00000" pt_clust_2="13000.00000" pt_clust_3="54.71572"></scales>
<clustering>
<clus scale="   54.716">  2  5  1 -1</clus>
<clus scale="  443.265">  2  3  1 -1</clus>
<clus scale="  443.265">  1  3  2 -1</clus>
</clustering>
</event>
<event>
 6   2  0.3464723E-02  0.5595222E+03  0.7816531E-02  0.9993136E-01
       21   -1    0    0  503  502  0.00000000000E+00  0.00000000000E+00  0.12984346710E+04  0.12984346710E+04  0.00000000000E+00 0. -1.
       21   -1    0    0  505  503  0.00000000000E+00  0.00000000000E+00 -0.39848447704E+03  0.39848447704E+03  0.00000000000E+00 0.  1.
  1000006    1    1    2  501    0  0.19118368992E+03  0.45581695286E+03  0.30924916796E+03  0.68004069414E+03  0.35000000000E+03 0.  0.
 -1000006    1    1    2    0  504 -0.28990648733E+03 -0.26979418133E+03  0.41310207763E+03  0.67081144759E+03  0.35000000000E+03 0.  0.
       21    1    1    2  504  502  0.13642128072E+03 -0.18477335359E+03  0.19794835805E+03  0.30320869130E+03  0.00000000000E+00 0. -1.
       21    1    1    2  505  501 -0.37698483305E+02 -0.12494179448E+01 -0.20349409695E+02  0.42858314989E+02  0.00000000000E+00 0.  1.
<scales pt_clust_1="13000.00000" pt_clust_2="13000.00000" pt_clust_3="226.65381" pt_clust_4="37.71918"></scales>
<clustering>
<clus scale="   37.719">  2  6  1 -1</clus>
<clus scale="  226.654">  1  5  2 -1</clus>
<clus scale="  559.522">  2  3  1 -1</clus>
<clus scale="  559.522">  1  3  2 -1</clus>
</clustering>
</event>
<event>
 5   1  0.3464723E-02  0.4111456E+03  0.7816531E-02  0.1039987E+00
       21   -1    0    0  502  503  0.00000000000E+00  0.00000000000E+00  0.33284231820E+03  0.33284231820E+03  0.00000000000E+00 0. -1.
        4   -1    0    0  501    0  0.00000000000E+00  0.00000000000E+00 -0.89838994072E+03  0.89838994072E+03  0.00000000000E+00 0.  1.
  1000006    1    1    2  501    0 -0.93473397533E+01  0.21039407304E+03 -0.53116770005E+03  0.67006877581E+03  0.35000000000E+03 0.  0.
 -1000006    1    1    2    0  503 -0.30442453789E+02 -0.21576094231E+03  0.97204659290E+02  0.42358974611E+03  0.35000000000E+03 0.  0.
        4    1    1    2  502    0  0.39789793542E+02  0.53668692688E+01 -0.13158458176E+03  0.13757373700E+03  0.00000000000E+00 0.  1.
<scales pt_clust_1="13000.00000" pt_clust_2="13000.00000" pt_clust_3="40.15011"></scales>
<clustering>
<clus scale="   40.150">  2  5  1 -1</clus>
<clus scale="  411.146">  2  3  1 -1</clus>
<clus scale="  411.146">  1  3  2 -1</clus>
</clustering>
</event>
<event>
 5   1  0.3464723E-02  0.3517510E+03  0.7816531E-02  0.1061899E+00
       21   -1    0    0  504  502  0.00000000000E+00  0.00000000000E+00  0.28781822739E+03  0.28781822739E+03  0.00000000000E+00 0. -1.
       21   -1    0    0  501  503  0.00000000000E+00  0.00000000000E+00 -0.92744929748E+03  0.92744929748E+03  0.00000000000E+00 0. -1.
  1000006    1    1    2  501    0 -0.11128728783E+03  0.57759451906E+02 -0.40060787349E+03  0.54654156568E+03  0.35000000000E+03 0.  0.
 -1000006    1    1    2    0  502 -0.11247432019E+03  0.58407483957E+02 -0.13436328346E+03  0.39574663464E+03  0.35000000000E+03 0.  0.
       21    1    1    2  504  503  0.22376160802E+03 -0.11616693586E+03 -0.10465991313E+03  0.27297932454E+03  0.00000000000E+00 0. -1.
<scales pt_clust_1="13000.00000" pt_clust_2="13000.00000" pt_clust_3="252.11905"></scales>
<clustering>
<clus scale="  252.119">  1  5  2 -1</clus>
<clus scale="  351.751">  2  3  1 -1</clus>
<clus scale="  351.751">  1  3  2 -1</clus>
</clustering>
</event>
<event>
 5   1  0.3464723E-02  0.3524224E+03  0.7816531E-02  0.1061625E+00
       21   -1    0    0  504  502  0.00000000000E+00  0.00000000000E+00  0.34194598836E+03  0.34194598836E+03  0.00000000000E+00 0.  1.
       21   -1    0    0  502  503  0.00000000000E+00  0.00000000000E+00 -0.43945330458E+03  0.43945330458E+03  0.00000000000E+00 0.  1.
  1000006    1    1    2  501    0 -0.53074650630E+02  0.36567036158E+02  0.45533543668E+02  0.35878596722E+03  0.35000000000E+03 0.  0.
 -1000006    1    1    2    0  503  0.11142513354E+02 -0.28630709644E+02 -0.14452813270E+03  0.37991085044E+03  0.35000000000E+03 0.  0.
       21    1    1    2  504  501  0.41932137276E+02 -0.79363265145E+01  0.14872728096E+01  0.42702475285E+02  0.00000000000E+00 0. -1.
<scales pt_clust_1="13000.00000" pt_clust_2="13000.00000" pt_clust_3="42.67657"></scales>
<clustering>
<clus scale="   42.677">  1  5  2 -1</clus>
<clus scale="  352.422">  1  3  2 -1</clus>
<clus scale="  352.422">  1  3  2 -1</clus>
</clustering>
</event>
<event>
 4   0  0.3464723E-02  0.3833591E+03  0.7816531E-02  0.1049699E+00
       21   -1    0    0  501  502  0.00000000000E+00  0.00000000000E+00  0.26384839385E+03  0.26384839385E+03  0.00000000000E+00 0. -1.
       21   -1    0    0  502  503  0.00000000000E+00  0.00000000000E+00 -0.69398427957E+03  0.69398427957E+03  0.00000000000E+00 0. -1.
  1000006    1    1    2  501    0  0.14579983411E+03  0.56627030693E+02 -0.22950716520E+01  0.38336598648E+03  0.35000000000E+03 0.  0.
 -1000006    1    1    2    0  503 -0.14579983411E+03 -0.56627030693E+02 -0.42784081407E+03  0.57446668695E+03  0.35000000000E+03 0.  0.
<scales pt_clust_1="13000.00000" pt_clust_2="13000.00000"></scales>
<clustering>
<clus scale="  383.359">  1  3  2 -1</clus>
<clus scale="  383.359">  1  3  2 -1</clus>
</clustering>
</event>
<event>
 6   2  0.3464723E-02  0.3741353E+03  0.7816531E-02  0.1053123E+00
       21   -1    0    0  501  502  0.00000000000E+00  0.00000000000E+00  0.46965550928E+03  0.46965550928E+03  0.00000000000E+00 0.  1.
       21   -1    0    0  505  503  0.00000000000E+00  0.00000000000E+00 -0.45810535186E+03  0.45810535186E+03  0.00000000000E+00 0.  1.
  1000006    1    1    2  501    0 -0.10997701886E+03 -0.98144475965E+02  0.13073125579E+03  0.40164405147E+03  0.35000000000E+03 0.  0.
 -1000006    1    1    2    0  503  0.42146973378E+02  0.12423673947E+03 -0.17569206210E+03  0.41301190719E+03  0.35000000000E+03 0.  0.
       21    1    1    2  504  502  0.13150939005E+02 -0.31497562066E+02  0.45808384473E+02  0.57126628649E+02  0.00000000000E+00 0.  1.
       21    1    1    2  505  504  0.54679106479E+02  0.54052985591E+01  0.10702579261E+02  0.55978273828E+02  0.00000000000E+00 0.  1.
<scales pt_clust_1="13000.00000" pt_clust_2="13000.00000" pt_clust_3="34.13274" pt_clust_4="55.80268"></scales>
<clustering>
<clus scale="   34.133">  1  5  2 -1</clus>
<clus scale="   55.803">  1  6  2 -1</clus>
<clus scale="  374.135">  2  4  1 -1</clus>
<clus scale="  374.135">  1  3  2 -1</clus>
</clustering>
</event>
<event>
 6   2  0.3464723E-02  0.3567180E+03  0.7816531E-02  0.1059891E+00
       21   -1    0    0  505  502  0.00000000000E+00  0.00000000000E+00  0.60007571326E+03  0.60007571326E+03  0.00000000000E+00 0. -1.
       21   -1    0    0  504  503  0.00000000000E+00  0.00000000000E+00 -0.83272341599E+03  0.83272341599E+03  0.00000000000E+00 0. -1.
  1000006    1    1    2  501    0  0.51276286677E+01  0.64498190822E+02 -0.31452444951E+03  0.47498625089E+03  0.35000000000E+03 0.  0.
 -1000006    1    1    2    0  503  0.67856410558E+02 -0.57335084100E+02 -0.35399045829E+03  0.50566891231E+03  0.35000000000E+03 0.  0.
       21    1    1    2  504  502 -0.30598213914E+02 -0.41283543968E+02  0.10576825619E+03  0.11759041506E+03  0.00000000000E+00 0. -1.
       21    1    1    2  505  501 -0.42385825312E+02  0.34120437246E+02  0.33009894888E+03  0.33455355098E+03  0.00000000000E+00 0. -1.
<scales pt_clust_1="13000.00000" pt_clust_2="13000.00000" pt_clust_3="51.38659" pt_clust_4="63.49311"></scales>
<clustering>
<clus scale="   51.387">  1  5  2 -1</clus>
<clus scale="   63.493">  1  6  2 -1</clus>
<clus scale="  356.718">  1  3  2 -1</clus>
<clus scale="  356.718">  1  3  2 -1</clus>
</clustering>
</event>
<event>
 4   0  0.3464723E-02  0.3610431E+03  0.7816531E-02  0.1058172E+00
       21   -1    0    0  503  502  0.00000000000E+00  0.00000000000E+00  0.11457952110E+03  0.11457952110E+03  0.00000000000E+00 0.  1.
       21   -1    0    0  501  503  0.00000000000E+00  0.00000000000E+00 -0.11393710754E+04  0.11393710754E+04  0.00000000000E+00 0.  1.
  1000006    1    1    2  501    0 -0.60276208179E+02  0.64953204619E+02 -0.53671740773E+03  0.64685215917E+03  0.35000000000E+03 0.  0.
 -1000006    1    1    2    0  502  0.60276208179E+02 -0.64953204619E+02 -0.48807414656E+03  0.60709843733E+03  0.35000000000E+03 0.  0.
<scales pt_clust_1="13000.00000" pt_clust_2="13000.00000"></scales>
<clustering>
<clus scale="  361.043">  2  3  1 -1</clus>
<clus scale="  361.043">  1  3  2 -1</clus>
</clustering>
</event>
<event>
 5   1  0.3464723E-02  0.3797407E+03  0.7816531E-02  0.1051030E+00
       21   -1    0    0  501  502  0.00000000000E+00  0.00000000000E+00  0.84937075120E+03  0.84937075120E+03  0.00000000000E+00 0. -1.
       21   -1    0    0  504  503  0.00000000000E+00  0.00000000000E+00 -0.20917275865E+03  0.20917275865E+03  0.00000000000E+00 0. -1.
  1000006    1    1    2  501    0 -0.12073787306E+03  0.52936025799E+02  0.34877504042E+03  0.51139406101E+03  0.35000000000E+03 0.  0.
 -1000006    1    1    2    0  503  0.14570013899E+03 -0.77159554471E+02  0.32004283950E+03  0.50210511496E+03  0.35000000000E+03 0.  0.
       21    1    1    2  504  502 -0.24962265930E+02  0.24223528672E+02 -0.28619887377E+02  0.45044333885E+02  0.00000000000E+00 0.  1.
<scales pt_clust_1="13000.00000" pt_clust_2="13000.00000" pt_clust_3="34.78353"></scales>
<clustering>
<clus scale="   34.784">  2  5  1 -1</clus>
<clus scale="  379.741">  1  3  2 -1</clus>
<clus scale="  379.741">  1  3  2 -1</clus>
</clustering>
</event>
<event>
 4   0  0.3464723E-02  0.3515785E+03  0.7816531E-02  0.1061969E+00
       21   -1    0    0  503  502  0.00000000000E+00  0.00000000000E+00  0.13573060948E+04  0.13573060948E+04  0.00000000000E+00 0.  1.
       21   -1    0    0  501  503  0.00000000000E+00  0.00000000000E+00 -0.95315125540E+02  0.95315125540E+02  0.00000000000E+00 0.  1.
  1000006    1    1    2  501    0  0.28375137829E+02  0.17386381323E+02  0.47768270582E+03  0.59311735950E+03  0.35000000000E+03 0.  0.
 -1000006    1    1    2    0  502 -0.28375137829E+02 -0.17386381323E+02  0.78430826348E+03  0.85950386088E+03  0.35000000000E+03 0.  0.
<scales pt_clust_1="13000.00000" pt_clust_2="13000.00000"></scales>
<clustering>
<clus scale="  351.578">  2  3  1 -1</clus>
<clus scale="  351.578">  1  3  2 -1</clus>
</clustering>
</event>
<event>
 4   0  0.3464723E-02  0.4498261E+03  0.7816531E-02  0.1027774E+00
       21   -1    0    0  503  502  0.00000000000E+00  0.00000000000E+00  0.96096594416E+03  0.96096594416E+03  0.00000000000E+00 0. -1.
       21   -1    0    0  501  503  0.00000000000E+00  0.00000000000E+00 -0.24917542405E+03  0.24917542405E+03  0.00000000000E+00 0. -1.
  1000006    1    1    2  501    0  0.15411479913E+03  0.23683772147E+03  0.11770754910E+03  0.46497155261E+03  0.35000000000E+03 0.  0.
 -1000006    1    1    2    0  502 -0.15411479913E+03 -0.23683772147E+03  0.59408297101E+03  0.74516981560E+03  0.35000000000E+03 0.  0.
<scales pt_clust_1="13000.00000" pt_clust_2="13000.00000"></scales>
<clustering>
<clus scale="  449.826">  2  3  1 -1</clus>
<clus scale="  449.826">  1  3  2 -1</clus>
</clustering>
</event>
<event>
 5   1  0.3464723E-02  0.4758598E+03  0.7816531E-02  0.1020279E+00
       21   -1    0    0  504  502  0.00000000000E+00  0.00000000000E+00  0.14346906206E+04  0.14346906206E+04  0.00000000000E+00 0. -1.
       21   -1    0    0  501  503  0.00000000000E+00  0.00000000000E+00 -0.48334822630E+03  0.48334822630E+03  0.00000000000E+00 0. -1.
  1000006    1    1    2  501    0 -0.20542908055E+03  0.94573541072E+02 -0.27243564192E+03  0.49786186919E+03  0.35000000000E+03 0.  0.
 -1000006    1    1    2    0  502  0.33563896282E+03 -0.21602447106E+02  0.11607403193E+04  0.12581487463E+04  0.35000000000E+03 0.  0.
       21    1    1    2  504  503 -0.13020988228E+03 -0.72971093966E+02  0.63037716883E+02  0.16202823133E+03  0.00000000000E+00 0.  1.
<scales pt_clust_1="13000.00000" pt_clust_2="13000.00000" pt_clust_3="149.26284"></scales>
<clustering>
<clus scale="  149.263">  2  5  1 -1</clus>
<clus scale="  475.860">  2  3  1 -1</clus>
<clus scale="  475.860">  1  3  2 -1</clus>
</clustering>
</event>
<event>
 5   1  0.3464723E-02  0.7612157E+03  0.7816531E-02  0.9617917E-01
        2   -1    0    0  503    0  0.00000000000E+00  0.00000000000E+00  0.97741992756E+03  0.97741992756E+03  0.00000000000E+00 0. -1.
       21   -1    0    0  501  503  0.00000000000E+00  0.00000000000E+00 -0.13508054043E+04  0.13508054043E+04  0.00000000000E+00 0. -1.
  1000006    1    1    2  501    0 -0.65587459536E+03 -0.90611923936E+02 -0.15736797560E+03  0.76527556171E+03  0.35000000000E+03 0.  0.
 -1000006    1    1    2    0  502  0.62872496897E+03 -0.52503492044E+03 -0.30237197205E+03  0.94068356198E+03  0.35000000000E+03 0.  0.
        2    1    1    2  502    0  0.27149626395E+02  0.61564684438E+03  0.86354470902E+02  0.62226620819E+03  0.00000000000E+00 0. -1.
<scales pt_clust_1="13000.00000" pt_clust_2="13000.00000" pt_clust_3="616.24519"></scales>
<clustering>
<clus scale="  616.245">  1  5  2 -1</clus>
<clus scale="  761.216">  2  3  1 -1</clus>
<clus scale="  761.216">  2  3  1 -1</clus>
</clustering>
</event>
<event>
 4   0  0.3464723E-02  0.4404639E+03  0.7816531E-02  0.1030605E+00
       21   -1    0    0  501  502  0.00000000000E+00  0.00000000000E+00  0.21354993668E+03  0.21354993668E+03  0.00000000000E+00 0. -1.
       21   -1    0    0  502  503  0.00000000000E+00  0.00000000000E+00 -0.96742381224E+03  0.96742381224E+03  0.00000000000E+00 0. -1.
  1000006    1    1    2  501    0 -0.20355663360E+03 -0.17341613552E+03 -0.23119790050E+03  0.49745444850E+03  0.35000000000E+03 0.  0.
 -1000006    1    1    2    0  503  0.20355663360E+03  0.17341613552E+03 -0.52267597506E+03  0.68351930042E+03  0.35000000000E+03 0.  0.
<scales pt_clust_1="13000.00000" pt_clust_2="13000.00000"></scales>
<clustering>
<clus scale="  440.464">  1  3  2 -1</clus>
<clus scale="  440.464">  1  3  2 -1</clus>
</clustering>
</event>
<event>
 4   0  0.3464723E-02  0.4222653E+03  0.7816531E-02  0.1036332E+00
        2   -1    0    0  502    0  0.00000000000E+00  0.00000000000E+00  0.15266464204E+04  0.15266464204E+04  0.00000000000E+00 0. -1.
       -2   -1    0    0    0  501  0.00000000000E+00  0.00000000000E+00 -0.12542632865E+03  0.12542632865E+03  0.00000000000E+00 0.  1.
  1000006    1    1    2  502    0 -0.19004976182E+02 -0.23547151612E+03  0.91727483705E+03  0.10098025306E+04  0.35000000000E+03 0.  0.
 -1000006    1    1    2    0  501  0.19004976182E+02  0.23547151612E+03  0.48394525471E+03  0.64227021850E+03  0.35000000000E+03 0.  0.
<scales pt_clust_1="13000.00000" pt_clust_2="13000.00000"></scales>
<clustering>
<clus scale="  631.210">  3  4 -1 -1</clus>
<clus scale="  422.265">  1  3  2 -1</clus>
</clustering>
</event>
<event>
 6   2  0.3464723E-02  0.3533774E+03  0.7816531E-02  0.1061237E+00
       21   -1    0    0  504  502  0.00000000000E+00  0.00000000000E+00  0.86357738816E+03  0.86357738816E+03  0.00000000000E+00 0. -1.
       21   -1    0    0  505  503  0.00000000000E+00  0.00000000000E+00 -0.52130898847E+03  0.52130898847E+03  0.00000000000E+00 0. -1.
  1000006    1    1    2  501    0 -0.59474005723E+02 -0.36678021372E+02  0.33090143218E+03  0.48670133802E+03  0.35000000000E+03 0.  0.
 -1000006    1    1    2    0  503 -0.12871380662E+03 -0.17427403416E+03 -0.71960100234E+02  0.41787191701E+03  0.35000000000E+03 0.  0.
       21    1    1    2  504  501 -0.77376430859E+02  0.34557787214E+02  0.13295391576E+03  0.15766450591E+03  0.00000000000E+00 0.  1.
       21    1    1    2  505  502  0.26556424320E+03  0.17639426832E+03 -0.49626848015E+02  0.32264861569E+03  0.00000000000E+00 0. -1.
<scales pt_clust_1="13000.00000" pt_clust_2="13000.00000" pt_clust_3="84.74286" pt_clust_4="310.49171"></scales>
<clustering>
<clus scale="   84.743">  1  5  2 -1</clus>
<clus scale="  310.492">  2  6  1 -1</clus>
<clus scale="  353.377">  1  3  2 -1</clus>
<clus scale="  353.377">  1  3  2 -1</clus>
</clustering>
</event>
<event>
 5   1  0.3464723E-02  0.4033036E+03  0.7816531E-02  0.1042642E+00
       21   -1    0    0  503  502  0.00000000000E+00  0.00000000000E+00  0.36751765200E+03  0.36751765200E+03  0.00000000000E+00 0. -1.
       21   -1    0    0  504  503  0.00000000000E+00  0.00000000000E+00 -0.80493129433E+03  0.80493129433E+03  0.00000000000E+00 0. -1.
  1000006    1    1    2  501    0  0.34980664729E+02  0.15577312102E+03 -0.68318730957E+02  0.39071263242E+03  0.35000000000E+03 0.  0.
 -1000006    1    1    2    0  502 -0.55275728110E+02 -0.23354670471E+03 -0.21452846744E+02  0.42492316251E+03  0.35000000000E+03 0.  0.
       21    1    1    2  504  501  0.20295063381E+02  0.77773583697E+02 -0.34764206462E+03  0.35681315140E+03  0.00000000000E+00 0. -1.
<scales pt_clust_1="13000.00000" pt_clust_2="13000.00000" pt_clust_3="80.37798"></scales>
<clustering>
<clus scale="   80.378">  2  5  1 -1</clus>
<clus scale="  403.304">  2  3  1 -1</clus>
<clus scale="  403.304">  1  3  2 -1</clus>
</clustering>
</event>
<event>
 4   0  0.3464723E-02  0.6257635E+03  0.7816531E-02  0.9853351E-01
       -1   -1    0    0    0  501  0.00000000000E+00  0.00000000000E+00  0.50926298654E+03  0.50926298654E+03  0.00000000000E+00 0.  1.
        1   -1    0    0  502    0  0.00000000000E+00  0.00000000000E+00 -0.78621687595E+03  0.78621687595E+03  0.00000000000E+00 0. -1.
  1000006    1    1    2  502    0 -0.48402950046E+03  0.18653537448E+03 -0.23456618450E+03  0.66828234913E+03  0.35000000000E+03 0.  0.
 -1000006    1    1    2    0  501  0.48402950046E+03 -0.18653537448E+03 -0.42387704910E+02  0.62719751337E+03  0.35000000000E+03 0.  0.
<scales pt_clust_1="13000.00000" pt_clust_2="13000.00000"></scales>
<clustering>
<clus scale=" 1110.885">  3  4 -1 -1</clus>
<clus scale="  625.764">  2  3  1 -1</clus>
</clustering>
</event>
<event>
 6   2  0.3464723E-02  0.4280608E+03  0.7816531E-02  0.1034474E+00
       21   -1    0    0  501  502  0.00000000000E+00  0.00000000000E+00  0.40995212075E+03  0.40995212075E+03  0.00000000000E+00 0.  1.
       21   -1    0    0  505  503  0.00000000000E+00  0.00000000000E+00 -0.18698720607E+04  0.18698720607E+04  0.00000000000E+00 0.  1.
  1000006    1    1    2  501    0  0.15977344221E+03 -0.19803542356E+03  0.18938063778E+03  0.47234585611E+03  0.35000000000E+03 0.  0.
 -1000006    1    1    2    0  504 -0.27232488096E+03  0.51921756774E+01 -0.10355070450E+04  0.11264824187E+04  0.35000000000E+03 0.  0.
       21    1    1    2  504  503  0.40617729849E+02  0.33725091429E+02 -0.40667699366E+03  0.41008945237E+03  0.00000000000E+00 0. -1.
       21    1    1    2  505  502  0.71933708897E+02  0.15911815645E+03 -0.20711653904E+03  0.27090645421E+03  0.00000000000E+00 0.  1.
<scales pt_clust_1="13000.00000" pt_clust_2="13000.00000" pt_clust_3="52.79377" pt_clust_4="182.42380"></scales>
<clustering>
<clus scale="   52.794">  2  5  1 -1</clus>
<clus scale="  182.424">  2  6  1 -1</clus>
<clus scale="  428.061">  2  4  1 -1</clus>
<clus scale="  428.061">  1  3  2 -1</clus>
</clustering>
</event>
<event>
 5   1  0.3464723E-02  0.3537413E+03  0.7816531E-02  0.1061090E+00
       21   -1    0    0  501  502  0.00000000000E+00  0.00000000000E+00  0.37024590830E+03  0.37024590830E+03  0.00000000000E+00 0.  1.
       21   -1    0    0  504  503  0.00000000000E+00  0.00000000000E+00 -0.59661596457E+03  0.59661596457E+03  0.00000000000E+00 0.  1.
  1000006    1    1    2  501    0 -0.11019458889E+01 -0.67785738419E+02  0.43167066145E+02  0.35910933741E+03  0.35000000000E+03 0.  0.
 -1000006    1    1    2    0  503  0.53504116157E+01  0.31920816896E+02 -0.16213156736E+02  0.35186706568E+03  0.35000000000E+03 0.  0.
       21    1    1    2  504  502 -0.42484657267E+01  0.35864921524E+02 -0.25332396568E+03  0.25588546978E+03  0.00000000000E+00 0.  1.
<scales pt_clust_1="13000.00000" pt_clust_2="13000.00000" pt_clust_3="36.11568"></scales>
<clustering>
<clus scale="   36.116">  2  5  1 -1</clus>
<clus scale="  353.741">  1  3  2 -1</clus>
<clus scale="  353.741">  1  3  2 -1</clus>
</clustering>
</event>
<event>
 4   0  0.3464723E-02  0.3686112E+03  0.7816531E-02  0.1055225E+00
       21   -1    0    0  503  502  0.00000000000E+00  0.00000000000E+00  0.26782798486E+03  0.26782798486E+03  0.00000000000E+00 0. -1.
       21   -1    0    0  501  503  0.00000000000E+00  0.00000000000E+00 -0.77050034308E+03  0.77050034308E+03  0.00000000000E+00 0. -1.
  1000006    1    1    2  501    0 -0.85391171355E+01  0.11533133953E+03 -0.55475730163E+03  0.66605547676E+03  0.35000000000E+03 0.  0.
 -1000006    1    1    2    0  502  0.85391171355E+01 -0.11533133953E+03  0.52084943414E+02  0.37227285119E+03  0.35000000000E+03 0.  0.
<scales pt_clust_1="13000.00000" pt_clust_2="13000.00000"></scales>
<clustering>
<clus scale="  368.611">  2  3  1 -1</clus>
<clus scale="  368.611">  1  3  2 -1</clus>
</clustering>
</event>
<event>
 5   1  0.3464723E-02  0.5445205E+03  0.7816531E-02  0.1002770E+00
       21   -1    0    0  501  502  0.00000000000E+00  0.00000000000E+00  0.17907138667E+04  0.17907138667E+04  0.00000000000E+00 0. -1.
       21   -1    0    0  504  503  0.00000000000E+00  0.00000000000E+00 -0.28115160333E+03  0.28115160333E+03  0.00000000000E+00 0.  1.
  1000006    1    1    2  501    0  0.28674855215E+03 -0.33732139875E+03  0.12629673202E+04  0.13833282005E+04  0.35000000000E+03 0.  0.
 -1000006    1    1    2    0  503 -0.26304011370E+03  0.31542645001E+03  0.11328637760E+03  0.55137804647E+03  0.35000000000E+03 0.  0.
       21    1    1    2  504  502 -0.23708438453E+02  0.21894948743E+02  0.13330856560E+03  0.13715922315E+03  0.00000000000E+00 0. -1.
<scales pt_clust_1="13000.00000" pt_clust_2="13000.00000" pt_clust_3="32.27195"></scales>
<clustering>
<clus scale="   32.272">  1  5  2 -1</clus>
<clus scale="  544.520">  1  3  2 -1</clus>
<clus scale="  544.520">  1  3  2 -1</clus>
</clustering>
</event>
<event>
 5   1  0.3464723E-02  0.3609482E+03  0.7816531E-02  0.1058209E+00
       21   -1    0    0  504  502  0.00000000000E+00  0.00000000000E+00  0.84823814477E+03  0.84823814477E+03  0.00000000000E+00 0.  1.
       21   -1    0    0  501  503  0.00000000000E+00  0.00000000000E+00 -0.50250303159E+03  0.50250303159E+03  0.00000000000E+00 0.  1.
  1000006    1    1    2  501    0  0.85563279016E+02  0.71639409552E+02  0.31482093091E+03  0.48380316065E+03  0.35000000000E+03 0.  0.
 -1000006    1    1    2    0  502 -0.20485596855E+02 -0.73058718974E+02  0.37395069217E+03  0.51778022004E+03  0.35000000000E+03 0.  0.
       21    1    1    2  504  503 -0.65077682162E+02  0.14193094218E+01 -0.34303650989E+03  0.34915779566E+03  0.00000000000E+00 0.  1.
<scales pt_clust_1="13000.00000" pt_clust_2="13000.00000" pt_clust_3="65.09316"></scales>
<clustering>
<clus scale="   65.093">  2  5  1 -1</clus>
<clus scale="  360.948">  2  3  1 -1</clus>
<clus scale="  360.948">  1  3  2 -1</clus>
</clustering>
</event>
<event>
 5   1  0.3464723E-02  0.3998354E+03  0.7816531E-02  0.1043837E+00
       21   -1    0    0  501  502  0.00000000000E+00  0.00000000000E+00  0.74389835392E+03  0.74389835392E+03  0.00000000000E+00 0. -1.
       21   -1    0    0  504  503  0.00000000000E+00  0.00000000000E+00 -0.31692557795E+03  0.31692557795E+03  0.00000000000E+00 0. -1.
  1000006    1    1    2  501    0 -0.18986812467E+03 -0.84382777250E+02  0.28632454530E+03  0.49764656445E+03  0.35000000000E+03 0.  0.
 -1000006    1    1    2    0  503  0.19286874921E+03 -0.76199608439E+01  0.55924878198E+01  0.39973452959E+03  0.35000000000E+03 0.  0.
       21    1    1    2  504  502 -0.30006245416E+01  0.92002738094E+02  0.13505574284E+03  0.16344283783E+03  0.00000000000E+00 0. -1.
<scales pt_clust_1="13000.00000" pt_clust_2="13000.00000" pt_clust_3="92.05166"></scales>
<clustering>
<clus scale="   92.052">  1  5  2 -1</clus>
<clus scale="  399.835">  1  3  2 -1</clus>
<clus scale="  399.835">  1  3  2 -1</clus>
</clustering>
</event>
<event>
 5   1  0.3464723E-02  0.8259702E+03  0.7816531E-02  0.9523169E-01
       21   -1    0    0  501  503  0.00000000000E+00  0.00000000000E+00  0.14533172236E+04  0.14533172236E+04  0.00000000000E+00 0. -1.
       -1   -1    0    0    0  501  0.00000000000E+00  0.00000000000E+00 -0.10659176809E+04  0.10659176809E+04  0.00000000000E+00 0.  1.
  1000006    1    1    2  502    0  0.12360105654E+03  0.77575241412E+03 -0.11932198112E+03  0.86822045839E+03  0.35000000000E+03 0.  0.
 -1000006    1    1    2    0  503 -0.66687328648E+02 -0.73383470156E+03  0.92124409037E+03  0.12305085303E+04  0.35000000000E+03 0.  0.
       -1    1    1    2    0  502 -0.56913727892E+02 -0.41917712567E+02 -0.41452256660E+03  0.42050591585E+03  0.00000000000E+00 0.  1.
<scales pt_clust_1="13000.00000" pt_clust_2="13000.00000" pt_clust_3="70.68428"></scales>
<clustering>
<clus scale="   70.684">  2  5  1 -1</clus>
<clus scale="  825.970">  2  3  1 -1</clus>
<clus scale="  825.970">  1  3  2 -1</clus>
</clustering>
</event>
<event>
 6   2  0.3464723E-02  0.6500380E+03  0.7816531E-02  0.9806708E-01
       21   -1    0    0  504  502  0.00000000000E+00  0.00000000000E+00  0.75207155556E+03  0.75207155556E+03  0.00000000000E+00 0.  1.
       21   -1    0    0  505  503  0.00000000000E+00  0.00000000000E+00 -0.96026975039E+03  0.96026975039E+03  0.00000000000E+00 0. -1.
  1000006    1    1    2  501    0 -0.84325555565E+02 -0.46445480239E+03 -0.42390465548E+02  0.58917401025E+03  0.35000000000E+03 0.  0.
 -1000006    1    1    2    0  502  0.53280625665E+02  0.61361679984E+03  0.16872729888E+03  0.72823986674E+03  0.35000000000E+03 0.  0.
       21    1    1    2  504  503  0.13370360350E+02  0.27840851982E+02 -0.36190221377E+02  0.47577428454E+02  0.00000000000E+00 0.  1.
       21    1    1    2  505  501  0.17674569550E+02 -0.17700284943E+03 -0.29834480679E+03  0.34735000051E+03  0.00000000000E+00 0. -1.
<scales pt_clust_1="13000.00000" pt_clust_2="13000.00000" pt_clust_3="30.88494" pt_clust_4="168.70605"></scales>
<clustering>
<clus scale="   30.885">  2  5  1 -1</clus>
<clus scale="  168.706">  2  6  1 -1</clus>
<clus scale="  650.038">  2  3  1 -1</clus>
<clus scale="  650.038">  1  3  2 -1</clus>
</clustering>
</event>
<event>
 4   0  0.3464723E-02  0.3502249E+03  0.7816531E-02  0.1062523E+00
       21   -1    0    0  501  502  0.00000000000E+00  0.00000000000E+00  0.13320097630E+04  0.13320097630E+04  0.00000000000E+00 0.  1.
       21   -1    0    0  502  503  0.00000000000E+00  0.00000000000E+00 -0.96934973899E+02  0.96934973899E+02  0.00000000000E+00 0.  1.
  1000006    1    1    2  501    0  0.16602152871E+01  0.12439169604E+02  0.77735920891E+03  0.85261059630E+03  0.35000000000E+03 0.  0.
 -1000006    1    1    2    0  503 -0.16602152871E+01 -0.12439169604E+02  0.45771558016E+03  0.57633414056E+03  0.35000000000E+03 0.  0.
<scales pt_clust_1="13000.00000" pt_clust_2="13000.00000"></scales>
<clustering>
<clus scale="  350.225">  1  3  2 -1</clus>
<clus scale="  350.225">  1  3  2 -1</clus>
</clustering>
</event>
<event>
 6   2  0.3464723E-02  0.3769316E+03  0.7816531E-02  0.1052074E+00
       21   -1    0    0  505  502  0.00000000000E+00  0.00000000000E+00  0.11260010832E+04  0.11260010832E+04  0.00000000000E+00 0.  1.
       21   -1    0    0  501  503  0.00000000000E+00  0.00000000000E+00 -0.43128230395E+03  0.43128230395E+03  0.00000000000E+00 0.  1.
  1000006    1    1    2  501    0 -0.22445567076E+02  0.16963317587E+03  0.10096416054E+03  0.40245866813E+03  0.35000000000E+03 0.  0.
 -1000006    1    1    2    0  502 -0.78783330514E+02 -0.11625172971E+03  0.79176043023E+03  0.87698680532E+03  0.35000000000E+03 0.  0.
       21    1    1    2  504  503 -0.29575560336E+02 -0.35598878649E+02 -0.10957419250E+03  0.11894745727E+03  0.00000000000E+00 0.  1.
       21    1    1    2  505  504  0.13080445793E+03 -0.17782567512E+02 -0.88431618981E+02  0.15889045647E+03  0.00000000000E+00 0.  1.
<scales pt_clust_1="13000.00000" pt_clust_2="13000.00000" pt_clust_3="46.28168" pt_clust_4="123.40069"></scales>
<clustering>
<clus scale="   46.282">  2  5  1 -1</clus>
<clus scale="  123.401">  2  6  1 -1</clus>
<clus scale="  376.932">  2  3  1 -1</clus>
<clus scale="  376.932">  1  3  2 -1</clus>
</clustering>
</event>
<event>
 4   0  0.3464723E-02  0.4211257E+03  0.7816531E-02  0.1036701E+00
       21   -1    0    0  503  502  0.00000000000E+00  0.00000000000E+00  0.12648125271E+04  0.12648125271E+04  0.00000000000E+00 0. -1.
       21   -1    0    0  501  503  0.00000000000E+00  0.00000000000E+00 -0.19671981011E+03  0.19671981011E+03  0.00000000000E+00 0. -1.
  1000006    1    1    2  501    0 -0.20445253599E+03  0.11421917913E+03  0.14240050382E+03  0.44455006899E+03  0.35000000000E+03 0.  0.
 -1000006    1    1    2    0  502  0.20445253599E+03 -0.11421917913E+03  0.92569221315E+03  0.10169822682E+04  0.35000000000E+03 0.  0.
<scales pt_clust_1="13000.00000" pt_clust_2="13000.00000"></scales>
<clustering>
<clus scale="  421.126">  2  3  1 -1</clus>
<clus scale="  421.126">  1  3  2 -1</clus>
</clustering>
</event>
<event>
 4   0  0.3464723E-02  0.4278454E+03  0.7816531E-02  0.1034543E+00
       -1   -1    0    0    0  501  0.00000000000E+00  0.00000000000E+00  0.23316572142E+04  0.23316572142E+04  0.00000000000E+00 0. -1.
        1   -1    0    0  502    0  0.00000000000E+00  0.00000000000E+00 -0.86219785634E+02  0.86219785634E+02  0.00000000000E+00 0.  1.
  1000006    1    1    2  502    0  0.20474279321E+03  0.13649925140E+03  0.14842978998E+04  0.15447303688E+04  0.35000000000E+03 0.  0.
 -1000006    1    1    2    0  501 -0.20474279321E+03 -0.13649925140E+03  0.76113952879E+03  0.87314663104E+03  0.35000000000E+03 0.  0.
<scales pt_clust_1="13000.00000" pt_clust_2="13000.00000"></scales>
<clustering>
<clus scale="  660.787">  3  4 -1 -1</clus>
<clus scale="  427.845">  2  3  1 -1</clus>
</clustering>
</event>
<event>
 4   0  0.3464723E-02  0.4162492E+03  0.7816531E-02  0.1038294E+00
       21   -1    0    0  503  502  0.00000000000E+00  0.00000000000E+00  0.21224171825E+04  0.21224171825E+04  0.00000000000E+00 0. -1.
       21   -1    0    0  501  503  0.00000000000E+00  0.00000000000E+00 -0.11446954737E+03  0.11446954737E+03  0.00000000000E+00 0. -1.
  1000006    1    1    2  501    0  0.78246803408E+02  0.21128386253E+03  0.40496278111E+03  0.58073943115E+03  0.35000000000E+03 0.  0.
 -1000006    1    1    2    0  502 -0.78246803408E+02 -0.21128386253E+03  0.16029848540E+04  0.16561472987E+04  0.35000000000E+03 0.  0.
<scales pt_clust_1="13000.00000" pt_clust_2="13000.00000"></scales>
<clustering>
<clus scale="  416.249">  2  3  1 -1</clus>
<clus scale="  416.249">  1  3  2 -1</clus>
</clustering>
</event>
<event>
 5   1  0.3464723E-02  0.5005833E+03  0.7816531E-02  0.1013627E+00
       21   -1    0    0  504  502  0.00000000000E+00  0.00000000000E+00  0.34911394651E+03  0.34911394651E+03  0.00000000000E+00 0.  1.
       21   -1    0    0  501  503  0.00000000000E+00  0.00000000000E+00 -0.10425286243E+04  0.10425286243E+04  0.00000000000E+00 0.  1.
  1000006    1    1    2  501    0 -0.29853961307E+03 -0.25761117884E+03 -0.63357344403E+03  0.82426011005E+03  0.35000000000E+03 0.  0.
 -1000006    1    1    2    0  502  0.21304642482E+03  0.18842674245E+03 -0.72110999175E+02  0.45672027829E+03  0.35000000000E+03 0.  0.
       21    1    1    2  504  503  0.85493188247E+02  0.69184436389E+02  0.12269765465E+02  0.11066218243E+03  0.00000000000E+00 0.  1.
<scales pt_clust_1="13000.00000" pt_clust_2="13000.00000" pt_clust_3="109.97987"></scales>
<clustering>
<clus scale="  109.980">  1  5  2 -1</clus>
<clus scale="  500.583">  1  4  2 -1</clus>
<clus scale="  500.583">  1  3  2 -1</clus>
</clustering>
</event>
<event>
 5   1  0.3464723E-02  0.3585167E+03  0.7816531E-02  0.1059173E+00
       21   -1    0    0  504  502  0.00000000000E+00  0.00000000000E+00  0.12990102397E+04  0.12990102397E+04  0.00000000000E+00 0.  1.
       21   -1    0    0  501  503  0.00000000000E+00  0.00000000000E+00 -0.11579180070E+03  0.11579180070E+03  0.00000000000E+00 0.  1.
  1000006    1    1    2  501    0  0.65248880347E+02  0.24409587129E+02  0.43986303103E+03  0.56642098336E+03  0.35000000000E+03 0.  0.
 -1000006    1    1    2    0  502 -0.65122740745E+02 -0.65825455913E+02  0.61660091260E+03  0.71503192057E+03  0.35000000000E+03 0.  0.
       21    1    1    2  504  503 -0.12613960197E+00  0.41415868784E+02  0.12675449541E+03  0.13334913650E+03  0.00000000000E+00 0.  1.
<scales pt_clust_1="13000.00000" pt_clust_2="13000.00000" pt_clust_3="41.41606"></scales>
<clustering>
<clus scale="   41.416">  1  5  2 -1</clus>
<clus scale="  358.517">  2  3  1 -1</clus>
<clus scale="  358.517">  1  3  2 -1</clus>
</clustering>
</event>
<event>
 6   2  0.3464723E-02  0.4299233E+03  0.7816531E-02  0.1033884E+00
        2   -1    0    0  504    0  0.00000000000E+00  0.00000000000E+00  0.11162505759E+04  0.11162505759E+04  0.00000000000E+00 0. -1.
       21   -1    0    0  502  503  0.00000000000E+00  0.00000000000E+00 -0.15660822550E+04  0.15660822550E+04  0.00000000000E+00 0.  1.
  1000006    1    1    2  501    0 -0.13091193964E+01  0.34571024509E+03 -0.47100122117E+03  0.68107227054E+03  0.35000000000E+03 0.  0.
 -1000006    1    1    2    0  503 -0.14692708848E+03 -0.17693030377E+03 -0.92372582024E+03  0.10142294083E+04  0.35000000000E+03 0.  0.
       21    1    1    2  504  501  0.39229315077E+01 -0.10044598394E+03  0.18505307916E+03  0.21059303689E+03  0.00000000000E+00 0. -1.
        2    1    1    2  502    0  0.14431327637E+03 -0.68333957379E+02  0.75984228312E+03  0.77643811517E+03  0.00000000000E+00 0. -1.
<scales pt_clust_1="13000.00000" pt_clust_2="13000.00000" pt_clust_3="100.52256" pt_clust_4="212.11456"></scales>
<clustering>
<clus scale="  100.523">  1  5  2 -1</clus>
<clus scale="  212.115">  1  6  2 -1</clus>
<clus scale="  429.923">  2  4  1 -1</clus>
<clus scale="  429.923">  2  3  1 -1</clus>
</clustering>
</event>
<event>
 4   0  0.3464723E-02  0.4067566E+03  0.7816531E-02  0.1041465E+00
       21   -1    0    0  503  502  0.00000000000E+00  0.00000000000E+00  0.31971048363E+03  0.31971048363E+03  0.00000000000E+00 0. -1.
       21   -1    0    0  501  503  0.00000000000E+00  0.00000000000E+00 -0.56152868637E+03  0.56152868637E+03  0.00000000000E+00 0. -1.
  1000006    1    1    2  501    0 -0.82532649568E+02  0.19010330409E+03 -0.24428616741E+03  0.47447511637E+03  0.35000000000E+03 0.  0.
 -1000006    1    1    2    0  502  0.82532649568E+02 -0.19010330409E+03  0.24679646683E+01  0.40676405362E+03  0.35000000000E+03 0.  0.
<scales pt_clust_1="13000.00000" pt_clust_2="13000.00000"></scales>
<clustering>
<clus scale="  406.757">  2  3  1 -1</clus>
<clus scale="  406.757">  1  3  2 -1</clus>
</clustering>
</event>
<event>
 5   1  0.3464723E-02  0.3674742E+03  0.7816531E-02  0.1055663E+00
       21   -1    0    0  501  502  0.00000000000E+00  0.00000000000E+00  0.27307566398E+03  0.27307566398E+03  0.00000000000E+00 0.  1.
       21   -1    0    0  502  503  0.00000000000E+00  0.00000000000E+00 -0.60686856063E+03  0.60686856063E+03  0.00000000000E+00 0.  1.
  1000006    1    1    2  501    0  0.68746248408E+01 -0.11623603885E+03 -0.84372970754E+02  0.37838720299E+03  0.35000000000E+03 0.  0.
 -1000006    1    1    2    0  504  0.46019323554E+02  0.10385484295E+03 -0.17002057020E+03  0.40535244027E+03  0.35000000000E+03 0.  0.
       21    1    1    2  504  503 -0.52893948395E+02  0.12381195897E+02 -0.79399355695E+02  0.96204581353E+02  0.00000000000E+00 0.  1.
<scales pt_clust_1="13000.00000" pt_clust_2="13000.00000" pt_clust_3="54.32369"></scales>
<clustering>
<clus scale="   54.324">  2  5  1 -1</clus>
<clus scale="  367.474">  2  4  1 -1</clus>
<clus scale="  367.474">  1  3  2 -1</clus>
</clustering>
</event>
<event>
 6   2  0.3464723E-02  0.3727832E+03  0.7816531E-02  0.1053634E+00
       21   -1    0    0  501  502  0.00000000000E+00  0.00000000000E+00  0.11873462305E+04  0.11873462305E+04  0.00000000000E+00 0.  1.
       21   -1    0    0  504  503  0.00000000000E+00  0.00000000000E+00 -0.58698293632E+03  0.58698293632E+03  0.00000000000E+00 0.  1.
  1000006    1    1    2  501    0 -0.28087759470E+01  0.86226062325E+02  0.42040380453E+03  0.55378893263E+03  0.35000000000E+03 0.  0.
 -1000006    1    1    2    0  505  0.12316092554E+03 -0.31723916475E+02 -0.75891678455E+02  0.38004548059E+03  0.35000000000E+03 0.  0.
       21    1    1    2  504  502 -0.15778595824E+03 -0.16718818075E+02  0.53411952067E+03  0.55718900730E+03  0.00000000000E+00 0.  1.
       21    1    1    2  505  503  0.37433808648E+02 -0.37783327775E+02 -0.27826835253E+03  0.28330574634E+03  0.00000000000E+00 0.  1.
<scales pt_clust_1="13000.00000" pt_clust_2="13000.00000" pt_clust_3="157.42466" pt_clust_4="53.18712"></scales>
<clustering>
<clus scale="   53.187">  2  6  1 -1</clus>
<clus scale="  157.425">  1  5  2 -1</clus>
<clus scale="  372.783">  2  4  1 -1</clus>
<clus scale="  372.783">  1  3  2 -1</clus>
</clustering>
</event>
<event>
 4   0  0.3464723E-02  0.4075089E+03  0.7816531E-02  0.1041210E+00
       21   -1    0    0  501  502  0.00000000000E+00  0.00000000000E+00  0.69089975754E+03  0.69089975754E+03  0.00000000000E+00 0. -1.
       21   -1    0    0  502  503  0.00000000000E+00  0.00000000000E+00 -0.10529408870E+04  0.10529408870E+04  0.00000000000E+00 0. -1.
  1000006    1    1    2  501    0 -0.76899145845E+02 -0.19403609470E+03  0.58494379650E+03  0.71289741881E+03  0.35000000000E+03 0.  0.
 -1000006    1    1    2    0  503  0.76899145845E+02  0.19403609470E+03 -0.94698492601E+03  0.10309432258E+04  0.35000000000E+03 0.  0.
<scales pt_clust_1="13000.00000" pt_clust_2="13000.00000"></scales>
<clustering>
<clus scale="  407.509">  1  3  2 -1</clus>
<clus scale="  407.509">  1  3  2 -1</clus>
</clustering>
</event>
<event>
 6   2  0.3464723E-02  0.4271284E+03  0.7816531E-02  0.1034771E+00
       21   -1    0    0  504  502  0.00000000000E+00  0.00000000000E+00  0.45894529419E+03  0.45894529419E+03  0.00000000000E+00 0. -1.
       21   -1    0    0  502  503  0.00000000000E+00  0.00000000000E+00 -0.13088028339E+04  0.13088028339E+04  0.00000000000E+00 0.  1.
  1000006    1    1    2  501    0  0.12001128427E+03 -0.18973676900E+03 -0.17969095158E+03  0.45298078099E+03  0.35000000000E+03 0.  0.
 -1000006    1    1    2    0  503 -0.26249132974E+03  0.65695323309E+02 -0.90645230666E+03  0.10086492740E+04  0.35000000000E+03 0.  0.
       21    1    1    2  504  505  0.84633496507E+02  0.99938291366E+02  0.17385373373E+03  0.21765939342E+03  0.00000000000E+00 0. -1.
       21    1    1    2  505  501  0.57846548961E+02  0.24103154326E+02  0.62431984831E+02  0.88458679649E+02  0.00000000000E+00 0. -1.
<scales pt_clust_1="13000.00000" pt_clust_2="13000.00000" pt_clust_3="194.62100" pt_clust_4="32.37590"></scales>
<clustering>
<clus scale="   32.376">  5  6 -1 -1</clus>
<clus scale="  194.621">  1  5  2 -1</clus>
<clus scale="  427.128">  1  3  2 -1</clus>
<clus scale="  427.128">  1  3  2 -1</clus>
</clustering>
</event>
<event>
 6   2  0.3464723E-02  0.5376631E+03  0.7816531E-02  0.1004390E+00
       21   -1    0    0  501  502  0.00000000000E+00  0.00000000000E+00  0.67021705051E+03  0.67021705051E+03  0.00000000000E+00 0. -1.
       21   -1    0    0  505  503  0.00000000000E+00  0.00000000000E+00 -0.10567516674E+04  0.10567516674E+04  0.00000000000E+00 0.  1.
  1000006    1    1    2  501    0  0.34479870425E+03  0.19514689323E+02  0.56184970380E+02  0.49489768685E+03  0.35000000000E+03 0.  0.
 -1000006    1    1    2    0  503 -0.46567167692E+03 -0.40342473733E+03 -0.20935696508E+03  0.73887209191E+03  0.35000000000E+03 0.  0.
       21    1    1    2  504  502  0.98563613125E+02  0.35060290511E+03 -0.13748964611E+03  0.38928214150E+03  0.00000000000E+00 0. -1.
       21    1    1    2  505  504  0.22309359539E+02  0.33307142896E+02 -0.95872976058E+02  0.10391679763E+03  0.00000000000E+00 0.  1.
<scales pt_clust_1="13000.00000" pt_clust_2="13000.00000" pt_clust_3="374.69757" pt_clust_4="40.08832"></scales>
<clustering>
<clus scale="   40.088">  2  6  1 -1</clus>
<clus scale="  374.698">  2  5  1 -1</clus>
<clus scale="  537.663">  1  3  2 -1</clus>
<clus scale="  537.663">  1  3  2 -1</clus>
</clustering>
</event>
<event>
 6   2  0.3464723E-02  0.3607591E+03  0.7816531E-02  0.1058284E+00
        1   -1    0    0  501    0  0.00000000000E+00  0.00000000000E+00  0.22091160038E+04  0.22091160038E+04  0.00000000000E+00 0. -1.
       21   -1    0    0  504  503  0.00000000000E+00  0.00000000000E+00 -0.28713223957E+03  0.28713223957E+03  0.00000000000E+00 0. -1.
  1000006    1    1    2  501    0  0.37600863548E+02  0.13570146796E+03  0.25292790484E+03  0.45420396123E+03  0.35000000000E+03 0.  0.
 -1000006    1    1    2    0  503  0.14064315227E+03 -0.81727883150E+01  0.60885862435E+02  0.38217061503E+03  0.35000000000E+03 0.  0.
       21    1    1    2  504  502 -0.61493499393E+02 -0.36511569144E+02  0.34762055878E+02  0.79516952141E+02  0.00000000000E+00 0. -1.
        1    1    1    2  502    0 -0.11675051642E+03 -0.91017110505E+02  0.15734079410E+04  0.15803567149E+04  0.00000000000E+00 0. -1.
<scales pt_clust_1="13000.00000" pt_clust_2="13000.00000" pt_clust_3="71.51605" pt_clust_4="148.96755"></scales>
<clustering>
<clus scale="   71.516">  2  5  1 -1</clus>
<clus scale="  148.968">  1  6  2 -1</clus>
<clus scale="  360.759">  1  3  2 -1</clus>
<clus scale="  360.759">  2  3  1 -1</clus>
</clustering>
</event>
<event>
 4   0  0.3464723E-02  0.3586598E+03  0.7816531E-02  0.1059116E+00
       21   -1    0    0  503  502  0.00000000000E+00  0.00000000000E+00  0.31695752187E+03  0.31695752187E+03  0.00000000000E+00 0. -1.
       21   -1    0    0  501  503  0.00000000000E+00  0.00000000000E+00 -0.40590938316E+03  0.40590938316E+03  0.00000000000E+00 0. -1.
  1000006    1    1    2  501    0  0.10314941462E+01  0.78331321842E+02 -0.48888073246E+02  0.36197638551E+03  0.35000000000E+03 0.  0.
 -1000006    1    1    2    0  502 -0.10314941462E+01 -0.78331321842E+02 -0.40063788046E+02  0.36089051951E+03  0.35000000000E+03 0.  0.
<scales pt_clust_1="13000.00000" pt_clust_2="13000.00000"></scales>
<clustering>
<clus scale="  358.660">  2  3  1 -1</clus>
<clus scale="  358.660">  1  3  2 -1</clus>
</clustering>
</event>
<event>
 6   2  0.3464723E-02  0.3515497E+03  0.7816531E-02  0.1061981E+00
       21   -1    0    0  505  502  0.00000000000E+00  0.00000000000E+00  0.33526264609E+03  0.33526264609E+03  0.00000000000E+00 0.  1.
       21   -1    0    0  502  503  0.00000000000E+00  0.00000000000E+00 -0.16816964439E+04  0.16816964439E+04  0.00000000000E+00 0.  1.
  1000006    1    1    2  501    0 -0.14414310954E+03  0.22793418052E+03 -0.27629032894E+03  0.52112145661E+03  0.35000000000E+03 0.  0.
 -1000006    1    1    2    0  504  0.12735030538E+02  0.62830267675E+02 -0.95436259995E+03  0.10185370861E+04  0.35000000000E+03 0.  0.
       21    1    1    2  504  503 -0.20284694224E+02 -0.25470822695E+02 -0.16463154610E+03  0.16782067096E+03  0.00000000000E+00 0. -1.
       21    1    1    2  505  501  0.15169277322E+03 -0.26529362550E+03  0.48850677198E+02  0.30947987631E+03  0.00000000000E+00 0.  1.
<scales pt_clust_1="13000.00000" pt_clust_2="13000.00000" pt_clust_3="32.56120" pt_clust_4="306.64664"></scales>
<clustering>
<clus scale="   32.561">  2  5  1 -1</clus>
<clus scale="  306.647">  1  6  2 -1</clus>
<clus scale="  351.550">  2  4  1 -1</clus>
<clus scale="  351.550">  1  3  2 -1</clus>
</clustering>
</event>
<event>
 4   0  0.3464723E-02  0.3580104E+03  0.7816531E-02  0.1059374E+00
       21   -1    0    0  501  502  0.00000000000E+00  0.00000000000E+00  0.17935531314E+04  0.17935531314E+04  0.00000000000E+00 0.  1.
       21   -1    0    0  502  503  0.00000000000E+00  0.00000000000E+00 -0.80541480397E+02  0.80541480397E+02  0.00000000000E+00 0.  1.
  1000006    1    1    2  501    0  0.11929804115E+02 -0.74358109220E+02  0.11711174842E+04  0.12246173322E+04  0.35000000000E+03 0.  0.
 -1000006    1    1    2    0  503 -0.11929804115E+02  0.74358109220E+02  0.54189416677E+03  0.64947727952E+03  0.35000000000E+03 0.  0.
<scales pt_clust_1="13000.00000" pt_clust_2="13000.00000"></scales>
<clustering>
<clus scale="  358.010">  1  3  2 -1</clus>
<clus scale="  358.010">  1  3  2 -1</clus>
</clustering>
</event>
<event>
 5   1  0.3464723E-02  0.3572042E+03  0.7816531E-02  0.1059696E+00
       21   -1    0    0  504  502  0.00000000000E+00  0.00000000000E+00  0.18789958893E+04  0.18789958893E+04  0.00000000000E+00 0.  1.
       21   -1    0    0  502  503  0.00000000000E+00  0.00000000000E+00 -0.25945169019E+03  0.25945169019E+03  0.00000000000E+00 0.  1.
  1000006    1    1    2  501    0  0.27974109168E+02  0.55700800194E+02  0.27003466771E+03  0.44643459957E+03  0.35000000000E+03 0.  0.
 -1000006    1    1    2    0  503 -0.68345402909E+02 -0.41170682350E+02  0.17597825379E+02  0.35941035411E+03  0.35000000000E+03 0.  0.
       21    1    1    2  504  501  0.40371293740E+02 -0.14530117844E+02  0.13319117060E+04  0.13326026258E+04  0.00000000000E+00 0.  1.
<scales pt_clust_1="13000.00000" pt_clust_2="13000.00000" pt_clust_3="42.90648"></scales>
<clustering>
<clus scale="   42.906">  1  5  2 -1</clus>
<clus scale="  357.204">  1  3  2 -1</clus>
<clus scale="  357.204">  1  3  2 -1</clus>
</clustering>
</event>
<event>
 4   0  0.3464723E-02  0.3693178E+03  0.7816531E-02  0.1054954E+00
        2   -1    0    0  502    0  0.00000000000E+00  0.00000000000E+00  0.19205040368E+04  0.19205040368E+04  0.00000000000E+00 0.  1.
       -2   -1    0    0    0  501  0.00000000000E+00  0.00000000000E+00 -0.85717360470E+02  0.85717360470E+02  0.00000000000E+00 0. -1.
  1000006    1    1    2  502    0 -0.11621010249E+03  0.19769207960E+02  0.13327520001E+04  0.13829763205E+04  0.35000000000E+03 0.  0.
 -1000006    1    1    2    0  501  0.11621010249E+03 -0.19769207960E+02  0.50203467631E+03  0.62324507677E+03  0.35000000000E+03 0.  0.
<scales pt_clust_1="13000.00000" pt_clust_2="13000.00000"></scales>
<clustering>
<clus scale="  539.428">  3  4 -1 -1</clus>
<clus scale="  369.318">  1  3  2 -1</clus>
</clustering>
</event>
<event>
 6   2  0.3464723E-02  0.5154401E+03  0.7816531E-02  0.1009826E+00
       21   -1    0    0  505  502  0.00000000000E+00  0.00000000000E+00  0.71500899216E+03  0.71500899216E+03  0.00000000000E+00 0. -1.
       21   -1    0    0  501  503  0.00000000000E+00  0.00000000000E+00 -0.24214940106E+04  0.24214940106E+04  0.00000000000E+00 0. -1.
  1000006    1    1    2  501    0  0.21211559762E+03  0.29564337403E+03 -0.14429623482E+04  0.15287375084E+04  0.35000000000E+03 0.  0.
 -1000006    1    1    2    0  504 -0.26281819419E+03 -0.26443968985E+03 -0.75116379415E+03  0.90870721270E+03  0.35000000000E+03 0.  0.
       21    1    1    2  504  502  0.28574402027E+02 -0.77011649782E+02  0.58418467052E+03  0.58993136882E+03  0.00000000000E+00 0. -1.
       21    1    1    2  505  503  0.22128194547E+02  0.45807965603E+02 -0.96543546630E+02  0.10912691282E+03  0.00000000000E+00 0. -1.
<scales pt_clust_1="13000.00000" pt_clust_2="13000.00000" pt_clust_3="82.09822" pt_clust_4="50.87265"></scales>
<clustering>
<clus scale="   50.873">  2  6  1 -1</clus>
<clus scale="   82.098">  1  5  2 -1</clus>
<clus scale="  515.440">  2  3  1 -1</clus>
<clus scale="  515.440">  1  3  2 -1</clus>
</clustering>
</event>
<event>
 5   1  0.3464723E-02  0.3601354E+03  0.7816531E-02  0.1058530E+00
       21   -1    0    0  504  502  0.00000000000E+00  0.00000000000E+00  0.11237293473E+04  0.11237293473E+04  0.00000000000E+00 0. -1.
       21   -1    0    0  501  503  0.00000000000E+00  0.00000000000E+00 -0.20847719069E+03  0.20847719069E+03  0.00000000000E+00 0. -1.
  1000006    1    1    2  501    0  0.45294546503E+01 -0.76330700692E+02  0.44726580840E+02  0.36103650627E+03  0.35000000000E+03 0.  0.
 -1000006    1    1    2    0  502 -0.18620746605E+01  0.11352580287E+03  0.64493258336E+03  0.74251573204E+03  0.35000000000E+03 0.  0.
       21    1    1    2  504  503 -0.26673799898E+01 -0.37195102178E+02  0.22559299240E+03  0.22865429968E+03  0.00000000000E+00 0.  1.
<scales pt_clust_1="13000.00000" pt_clust_2="13000.00000" pt_clust_3="37.29062"></scales>
<clustering>
<clus scale="   37.291">  1  5  2 -1</clus>
<clus scale="  360.135">  2  3  1 -1</clus>
<clus scale="  360.135">  1  3  2 -1</clus>
</clustering>
</event>
<event>
 4   0  0.3464723E-02  0.4114536E+03  0.7816531E-02  0.1039884E+00
       21   -1    0    0  501  502  0.00000000000E+00  0.00000000000E+00  0.14958570850E+03  0.14958570850E+03  0.00000000000E+00 0. -1.
       21   -1    0    0  502  503  0.00000000000E+00  0.00000000000E+00 -0.22412692855E+04  0.22412692855E+04  0.00000000000E+00 0. -1.
  1000006    1    1    2  501    0 -0.24866028135E+02 -0.21488536788E+03 -0.20475055580E+03  0.45958332300E+03  0.35000000000E+03 0.  0.
 -1000006    1    1    2    0  503  0.24866028135E+02  0.21488536788E+03 -0.18869330212E+04  0.19312716710E+04  0.35000000000E+03 0.  0.
<scales pt_clust_1="13000.00000" pt_clust_2="13000.00000"></scales>
<clustering>
<clus scale="  411.454">  1  3  2 -1</clus>
<clus scale="  411.454">  1  3  2 -1</clus>
</clustering>
</event>
<event>
 4   0  0.3464723E-02  0.4293118E+03  0.7816531E-02  0.1034078E+00
       -2   -1    0    0    0  501  0.00000000000E+00  0.00000000000E+00  0.17579333311E+03  0.17579333311E+03  0.00000000000E+00 0.  1.
        2   -1    0    0  502    0  0.00000000000E+00  0.00000000000E+00 -0.11405283395E+04  0.11405283395E+04  0.00000000000E+00 0. -1.
  1000006    1    1    2  502    0 -0.24859176483E+03 -0.32808529937E+01 -0.66938536853E+03  0.79522663508E+03  0.35000000000E+03 0.  0.
 -1000006    1    1    2    0  501  0.24859176483E+03  0.32808529937E+01 -0.29534963784E+03  0.52109503750E+03  0.35000000000E+03 0.  0.
<scales pt_clust_1="13000.00000" pt_clust_2="13000.00000"></scales>
<clustering>
<clus scale="  659.158">  3  4 -1 -1</clus>
<clus scale="  429.312">  2  3  1 -1</clus>
</clustering>
</event>
<event>
 5   1  0.3464723E-02  0.3549370E+03  0.7816531E-02  0.1060607E+00
       21   -1    0    0  501  502  0.00000000000E+00  0.00000000000E+00  0.13146001686E+03  0.13146001686E+03  0.00000000000E+00 0.  1.
       21   -1    0    0  504  503  0.00000000000E+00  0.00000000000E+00 -0.12269529573E+04  0.12269529573E+04  0.00000000000E+00 0.  1.
  1000006    1    1    2  501    0 -0.29274013753E+02  0.89209661850E+02 -0.47258817883E+03  0.59552910795E+03  0.35000000000E+03 0.  0.
 -1000006    1    1    2    0  503 -0.34450745197E+02 -0.32254164787E+02 -0.52732405337E+03  0.63466356619E+03  0.35000000000E+03 0.  0.
       21    1    1    2  504  502  0.63724758950E+02 -0.56955497063E+02 -0.95580708257E+02  0.12822030003E+03  0.00000000000E+00 0.  1.
<scales pt_clust_1="13000.00000" pt_clust_2="13000.00000" pt_clust_3="85.46797"></scales>
<clustering>
<clus scale="   85.468">  1  5  2 -1</clus>
<clus scale="  354.937">  1  3  2 -1</clus>
<clus scale="  354.937">  1  3  2 -1</clus>
</clustering>
</event>
<event>
 4   0  0.3464723E-02  0.3617787E+03  0.7816531E-02  0.1057882E+00
       21   -1    0    0  501  502  0.00000000000E+00  0.00000000000E+00  0.40257688143E+03  0.40257688143E+03  0.00000000000E+00 0. -1.
       21   -1    0    0  502  503  0.00000000000E+00  0.00000000000E+00 -0.33642623327E+03  0.33642623327E+03  0.00000000000E+00 0. -1.
  1000006    1    1    2  501    0  0.55806904783E+02  0.72590927921E+02  0.10082745481E+03  0.37556627788E+03  0.35000000000E+03 0.  0.
 -1000006    1    1    2    0  503 -0.55806904783E+02 -0.72590927921E+02 -0.34676806652E+02  0.36343683682E+03  0.35000000000E+03 0.  0.
<scales pt_clust_1="13000.00000" pt_clust_2="13000.00000"></scales>
<clustering>
<clus scale="  361.779">  1  3  2 -1</clus>
<clus scale="  361.779">  1  3  2 -1</clus>
</clustering>
</event>
<event>
 5   1  0.3464723E-02  0.4546402E+03  0.7816531E-02  0.1026347E+00
       21   -1    0    0  501  503  0.00000000000E+00  0.00000000000E+00  0.17985954039E+04  0.17985954039E+04  0.00000000000E+00 0. -1.
        1   -1    0    0  503    0  0.00000000000E+00  0.00000000000E+00 -0.31001042197E+03  0.31001042197E+03  0.00000000000E+00 0. -1.
  1000006    1    1    2  501    0  0.27860248600E+03  0.57633708193E+02  0.87224073619E+03  0.98195971984E+03  0.35000000000E+03 0.  0.
 -1000006    1    1    2    0  502 -0.29620977952E+03 -0.26802681925E+02  0.80924609289E+03  0.93050408709E+03  0.35000000000E+03 0.  0.
        1    1    1    2  502    0  0.17607293517E+02 -0.30831026268E+02 -0.19290184714E+03  0.19614201894E+03  0.00000000000E+00 0. -1.
<scales pt_clust_1="13000.00000" pt_clust_2="13000.00000" pt_clust_3="35.50449"></scales>
<clustering>
<clus scale="   35.504">  2  5  1 -1</clus>
<clus scale="  454.640">  1  3  2 -1</clus>
<clus scale="  454.640">  1  3  2 -1</clus>
</clustering>
</event>
<event>
 6   2  0.3464723E-02  0.3556657E+03  0.7816531E-02  0.1060313E+00
        1   -1    0    0  504    0  0.00000000000E+00  0.00000000000E+00  0.24751267517E+04  0.24751267517E+04  0.00000000000E+00 0. -1.
       21   -1    0    0  501  503  0.00000000000E+00  0.00000000000E+00 -0.14464916238E+03  0.14464916238E+03  0.00000000000E+00 0. -1.
  1000006    1    1    2  501    0  0.49871426051E+02 -0.22373248962E+00  0.21489833116E+03  0.41372515264E+03  0.35000000000E+03 0.  0.
 -1000006    1    1    2    0  502 -0.85026927476E+02 -0.11834475502E+03  0.10750397795E+04  0.11399322729E+04  0.35000000000E+03 0.  0.
       21    1    1    2  504  503  0.58780009749E+02  0.15078842074E+03  0.53350055614E+03  0.55750791992E+03  0.00000000000E+00 0. -1.
        1    1    1    2  502    0 -0.23624508324E+02 -0.32219933235E+02  0.50703892257E+03  0.50861056860E+03  0.00000000000E+00 0. -1.
<scales pt_clust_1="13000.00000" pt_clust_2="13000.00000" pt_clust_3="151.16395" pt_clust_4="39.95299"></scales>
<clustering>
<clus scale="   39.953">  1  6  2 -1</clus>
<clus scale="  151.164">  1  5  2 -1</clus>
<clus scale="  355.666">  1  4  2 -1</clus>
<clus scale="  355.666">  2  3  1 -1</clus>
</clustering>
</event>
<event>
 5   1  0.3464723E-02  0.4166089E+03  0.7816531E-02  0.1038176E+00
       21   -1    0    0  501  503  0.00000000000E+00  0.00000000000E+00  0.29826800405E+03  0.29826800405E+03  0.00000000000E+00 0. -1.
        2   -1    0    0  503    0  0.00000000000E+00  0.00000000000E+00 -0.13159927894E+04  0.13159927894E+04  0.00000000000E+00 0. -1.
  1000006    1    1    2  501    0  0.21144149971E+03  0.98386463200E+02  0.44103253645E+02  0.42288591951E+03  0.35000000000E+03 0.  0.
 -1000006    1    1    2    0  502 -0.21083795750E+03 -0.13420181044E+02 -0.62827872826E+03  0.74957781848E+03  0.35000000000E+03 0.  0.
        2    1    1    2  502    0 -0.60354220574E+00 -0.84966282157E+02 -0.43354931076E+03  0.44179705548E+03  0.00000000000E+00 0. -1.
<scales pt_clust_1="13000.00000" pt_clust_2="13000.00000" pt_clust_3="84.96843"></scales>
<clustering>
<clus scale="   84.968">  2  5  1 -1</clus>
<clus scale="  416.609">  2  4  1 -1</clus>
<clus scale="  416.609">  1  3  2 -1</clus>
</clustering>
</event>
<event>
 4   0  0.3464723E-02  0.4024921E+03  0.7816531E-02  0.1042920E+00
       21   -1    0    0  501  502  0.00000000000E+00  0.00000000000E+00  0.48689227369E+03  0.48689227369E+03  0.00000000000E+00 0. -1.
       21   -1    0    0  502  503  0.00000000000E+00  0.00000000000E+00 -0.37895591337E+03  0.37895591337E+03  0.00000000000E+00 0.  1.
  1000006    1    1    2  501    0 -0.17727599127E+03  0.89850653151E+02  0.20518368805E+03  0.45177457077E+03  0.35000000000E+03 0.  0.
 -1000006    1    1    2    0  503  0.17727599127E+03 -0.89850653151E+02 -0.97247327729E+02  0.41407361628E+03  0.35000000000E+03 0.  0.
<scales pt_clust_1="13000.00000" pt_clust_2="13000.00000"></scales>
<clustering>
<clus scale="  402.492">  1  3  2 -1</clus>
<clus scale="  402.492">  1  3  2 -1</clus>
</clustering>
</event>
<event>
 5   1  0.3464723E-02  0.5712371E+03  0.7816531E-02  0.9966945E-01
       21   -1    0    0  504  502  0.00000000000E+00  0.00000000000E+00  0.12738551765E+04  0.12738551765E+04  0.00000000000E+00 0. -1.
       21   -1    0    0  501  503  0.00000000000E+00  0.00000000000E+00 -0.42602206644E+03  0.42602206644E+03  0.00000000000E+00 0. -1.
  1000006    1    1    2  501    0 -0.36449665802E+02  0.47741717655E+03  0.43373320870E+02  0.59467384638E+03  0.35000000000E+03 0.  0.
 -1000006    1    1    2    0  502  0.20437247446E+03 -0.36161784802E+03  0.66241820743E+03  0.85664079862E+03  0.35000000000E+03 0.  0.
       21    1    1    2  504  503 -0.16792280866E+03 -0.11579932853E+03  0.14204158180E+03  0.24856259798E+03  0.00000000000E+00 0. -1.
<scales pt_clust_1="13000.00000" pt_clust_2="13000.00000" pt_clust_3="203.97930"></scales>
<clustering>
<clus scale="  203.979">  1  5  2 -1</clus>
<clus scale="  571.237">  1  4  2 -1</clus>
<clus scale="  571.237">  1  3  2 -1</clus>
</clustering>
</event>
<event>
 6   2  0.3464723E-02  0.5255589E+03  0.7816531E-02  0.1018779E+00
       21   -1    0    0  501  502  0.00000000000E+00  0.00000000000E+00  0.10312433031E+04  0.10312433031E+04  0.00000000000E+00 0.  1.
       21   -1    0    0  505  503  0.00000000000E+00  0.00000000000E+00 -0.57090063752E+03  0.57090063752E+03  0.00000000000E+00 0.  1.
  1000006    1    1    2  501    0  0.44256580572E+03 -0.90375618833E+02  0.47902649813E+02  0.57343431073E+03  0.35000000000E+03 0.  0.
 -1000006    1    1    2    0  503 -0.63205540013E+02  0.10072861813E+03 -0.10215703822E+03  0.38350652571E+03  0.35000000000E+03 0.  0.
       21    1    1    2  504  502 -0.87916512928E+02  0.33937649887E+02  0.13296669682E+03  0.16297613257E+03  0.00000000000E+00 0.  1.
       21    1    1    2  505  504 -0.29144375277E+03 -0.44290649188E+02  0.38163035718E+03  0.48222697162E+03  0.00000000000E+00 0.  1.
<scales pt_clust_1="13000.00000" pt_clust_2="13000.00000" pt_clust_3="48.82015" pt_clust_4="401.45698"></scales>
<clustering>
<clus scale="   48.820">  5  6 -1 -1</clus>
<clus scale="  369.650">  2  4  1 -1</clus>
<clus scale="  401.457">  1  5  2 -1</clus>
<clus scale="  525.559">  1  3  2 -1</clus>
</clustering>
</event>
<event>
 4   0  0.3464723E-02  0.5759192E+03  0.7816531E-02  0.9956665E-01
       21   -1    0    0  501  502  0.00000000000E+00  0.00000000000E+00  0.37159067776E+03  0.37159067776E+03  0.00000000000E+00 0. -1.
       21   -1    0    0  502  503  0.00000000000E+00  0.00000000000E+00 -0.93560213029E+03  0.93560213029E+03  0.00000000000E+00 0.  1.
  1000006    1    1    2  501    0 -0.45512568699E+03 -0.45204951850E+02 -0.14188741008E+03  0.59313987876E+03  0.35000000000E+03 0.  0.
 -1000006    1    1    2    0  503  0.45512568699E+03  0.45204951850E+02 -0.42212404245E+03  0.71405292930E+03  0.35000000000E+03 0.  0.
<scales pt_clust_1="13000.00000" pt_clust_2="13000.00000"></scales>
<clustering>
<clus scale="  575.919">  1  3  2 -1</clus>
<clus scale="  575.919">  1  3  2 -1</clus>
</clustering>
</event>
<event>
 4   0  0.3464723E-02  0.3549132E+03  0.7816531E-02  0.1060616E+00
       21   -1    0    0  501  502  0.00000000000E+00  0.00000000000E+00  0.92040963682E+02  0.92040963682E+02  0.00000000000E+00 0. -1.
       21   -1    0    0  502  503  0.00000000000E+00  0.00000000000E+00 -0.13785089897E+04  0.13785089897E+04  0.00000000000E+00 0. -1.
  1000006    1    1    2  501    0 -0.40356153231E+02 -0.42834497816E+02 -0.58076361135E+03  0.68062455552E+03  0.35000000000E+03 0.  0.
 -1000006    1    1    2    0  503  0.40356153231E+02  0.42834497816E+02 -0.70570441466E+03  0.78992539786E+03  0.35000000000E+03 0.  0.
<scales pt_clust_1="13000.00000" pt_clust_2="13000.00000"></scales>
<clustering>
<clus scale="  354.913">  1  3  2 -1</clus>
<clus scale="  354.913">  1  3  2 -1</clus>
</clustering>
</event>
<event>
 5   1  0.3464723E-02  0.4018637E+03  0.7816531E-02  0.1043136E+00
       21   -1    0    0  501  503  0.00000000000E+00  0.00000000000E+00  0.10968342878E+04  0.10968342878E+04  0.00000000000E+00 0. -1.
        2   -1    0    0  503    0  0.00000000000E+00  0.00000000000E+00 -0.79604778972E+03  0.79604778972E+03  0.00000000000E+00 0. -1.
  1000006    1    1    2  501    0 -0.68436656488E+02  0.19197622549E+03  0.87211811829E+03  0.96157602890E+03  0.35000000000E+03 0.  0.
 -1000006    1    1    2    0  502  0.94602290616E+02 -0.14312249405E+03 -0.34157190171E+02  0.39128040500E+03  0.35000000000E+03 0.  0.
        2    1    1    2  502    0 -0.26165634128E+02 -0.48853731440E+02 -0.53717443004E+03  0.54002564362E+03  0.00000000000E+00 0. -1.
<scales pt_clust_1="13000.00000" pt_clust_2="13000.00000" pt_clust_3="55.41956"></scales>
<clustering>
<clus scale="   55.420">  2  5  1 -1</clus>
<clus scale="  401.864">  2  4  1 -1</clus>
<clus scale="  401.864">  1  3  2 -1</clus>
</clustering>
</event>
<event>
 6   2  0.3464723E-02  0.3577813E+03  0.7816531E-02  0.1059466E+00
       21   -1    0    0  501  502  0.00000000000E+00  0.00000000000E+00  0.14483336771E+03  0.14483336771E+03  0.00000000000E+00 0.  1.
       21   -1    0    0  504  503  0.00000000000E+00  0.00000000000E+00 -0.21185559026E+04  0.21185559026E+04  0.00000000000E+00 0.  1.
  1000006    1    1    2  501    0 -0.26356398664E+02 -0.45583187089E+02 -0.22015442938E+03  0.41682185580E+03  0.35000000000E+03 0.  0.
 -1000006    1    1    2    0  505  0.14485753673E+03  0.55271046166E+02 -0.89194127375E+03  0.97061724192E+03  0.35000000000E+03 0.  0.
       21    1    1    2  504  502 -0.36737283673E+02 -0.30966836824E+02 -0.11607318978E+03  0.12562467266E+03  0.00000000000E+00 0. -1.
       21    1    1    2  505  503 -0.81763854389E+02  0.21278977747E+02 -0.74555364196E+03  0.75032549991E+03  0.00000000000E+00 0.  1.
<scales pt_clust_1="13000.00000" pt_clust_2="13000.00000" pt_clust_3="48.04761" pt_clust_4="96.00801"></scales>
<clustering>
<clus scale="   48.048">  2  5  1 -1</clus>
<clus scale="   96.008">  2  6  1 -1</clus>
<clus scale="  357.781">  1  3  2 -1</clus>
<clus scale="  357.781">  1  3  2 -1</clus>
</clustering>
</event>
<event>
 5   1  0.3464723E-02  0.3636036E+03  0.7816531E-02  0.1057166E+00
       21   -1    0    0  501  503  0.00000000000E+00  0.00000000000E+00  0.53495959916E+03  0.53495959916E+03  0.00000000000E+00 0.  1.
        2   -1    0    0  503    0  0.00000000000E+00  0.00000000000E+00 -0.17183488528E+04  0.17183488528E+04  0.00000000000E+00 0.  1.
  1000006    1    1    2  501    0 -0.79561465618E+02  0.91435616420E+02  0.16655427408E+03  0.40611676274E+03  0.35000000000E+03 0.  0.
 -1000006    1    1    2    0  502  0.59088618123E+02 -0.46142138990E+02  0.11915600609E+03  0.37725152825E+03  0.35000000000E+03 0.  0.
        2    1    1    2  502    0  0.20472847495E+02 -0.45293477430E+02 -0.14690995338E+04  0.14699401610E+04  0.00000000000E+00 0.  1.
<scales pt_clust_1="13000.00000" pt_clust_2="13000.00000" pt_clust_3="49.70550"></scales>
<clustering>
<clus scale="   49.705">  2  5  1 -1</clus>
<clus scale="  363.604">  1  3  2 -1</clus>
<clus scale="  363.604">  1  3  2 -1</clus>
</clustering>
</event>
<event>
 5   1  0.3464723E-02  0.3577544E+03  0.7816531E-02  0.1059477E+00
       21   -1    0    0  504  502  0.00000000000E+00  0.00000000000E+00  0.21060288784E+03  0.21060288784E+03  0.00000000000E+00 0. -1.
       21   -1    0    0  501  503  0.00000000000E+00  0.00000000000E+00 -0.72496683806E+03  0.72496683806E+03  0.00000000000E+00 0. -1.
  1000006    1    1    2  501    0 -0.98877601090E+02  0.10675632509E+01 -0.35591881453E+03  0.50887731549E+03  0.35000000000E+03 0.  0.
 -1000006    1    1    2    0  502  0.59343082928E+02 -0.49109460825E+01 -0.13106540318E+03  0.37844928167E+03  0.35000000000E+03 0.  0.
       21    1    1    2  504  503  0.39534518162E+02  0.38433828315E+01 -0.27379732519E+02  0.48243128741E+02  0.00000000000E+00 0.  1.
<scales pt_clust_1="13000.00000" pt_clust_2="13000.00000" pt_clust_3="39.72090"></scales>
<clustering>
<clus scale="   39.721">  2  5  1 -1</clus>
<clus scale="  357.754">  1  4  2 -1</clus>
<clus scale="  357.754">  1  3  2 -1</clus>
</clustering>
</event>
<event>
 6   2  0.3464723E-02  0.4133466E+03  0.7816531E-02  0.1039254E+00
       21   -1    0    0  504  503  0.00000000000E+00  0.00000000000E+00  0.31432179862E+03  0.31432179862E+03  0.00000000000E+00 0. -1.
        2   -1    0    0  503    0  0.00000000000E+00  0.00000000000E+00 -0.13364022669E+04  0.13364022669E+04  0.00000000000E+00 0. -1.
  1000006    1    1    2  501    0 -0.33530923328E+03 -0.57650386523E+02 -0.79002623101E+02  0.49446664543E+03  0.35000000000E+03 0.  0.
 -1000006    1    1    2    0  502  0.10071483909E+03  0.57550221443E+02 -0.45722509322E+03  0.58737576786E+03  0.35000000000E+03 0.  0.
       21    1    1    2  504  501  0.10159058579E+03  0.19055640192E+02 -0.54008400929E+02  0.11662191867E+03  0.00000000000E+00 0. -1.
        2    1    1    2  502    0  0.13300380840E+03 -0.18955475111E+02 -0.43184435102E+03  0.45225973355E+03  0.00000000000E+00 0. -1.
<scales pt_clust_1="13000.00000" pt_clust_2="13000.00000" pt_clust_3="103.36230" pt_clust_4="137.88348"></scales>
<clustering>
<clus scale="  103.362">  1  5  2 -1</clus>
<clus scale="  137.883">  2  6  1 -1</clus>
<clus scale="  413.347">  1  3  2 -1</clus>
<clus scale="  413.347">  1  3  2 -1</clus>
</clustering>
</event>
<event>
 5   1  0.3464723E-02  0.3575557E+03  0.7816531E-02  0.1059556E+00
       21   -1    0    0  504  502  0.00000000000E+00  0.00000000000E+00  0.31292355753E+03  0.31292355753E+03  0.00000000000E+00 0. -1.
       21   -1    0    0  501  503  0.00000000000E+00  0.00000000000E+00 -0.10065496786E+04  0.10065496786E+04  0.00000000000E+00 0. -1.
  1000006    1    1    2  501    0  0.11335026797E+01 -0.38257641437E+02 -0.34249188229E+03  0.49118796951E+03  0.35000000000E+03 0.  0.
 -1000006    1    1    2    0  502  0.30002653445E+02 -0.18654102199E+03 -0.43213861563E+03  0.58731720154E+03  0.35000000000E+03 0.  0.
       21    1    1    2  504  503 -0.31136156125E+02  0.22479866343E+03  0.81004376883E+02  0.24096806504E+03  0.00000000000E+00 0. -1.
<scales pt_clust_1="13000.00000" pt_clust_2="13000.00000" pt_clust_3="226.94471"></scales>
<clustering>
<clus scale="  226.945">  1  5  2 -1</clus>
<clus scale="  357.556">  1  4  2 -1</clus>
<clus scale="  357.556">  1  3  2 -1</clus>
</clustering>
</event>
<event>
 5   1  0.3464723E-02  0.4988014E+03  0.7816531E-02  0.1023374E+00
        1   -1    0    0  501    0  0.00000000000E+00  0.00000000000E+00  0.16072363350E+04  0.16072363350E+04  0.00000000000E+00 0. -1.
       21   -1    0    0  502  503  0.00000000000E+00  0.00000000000E+00 -0.34698203134E+03  0.34698203134E+03  0.00000000000E+00 0. -1.
  1000006    1    1    2  501    0  0.25966901490E+03  0.12409738497E+03  0.58853101311E+03  0.74276302523E+03  0.35000000000E+03 0.  0.
 -1000006    1    1    2    0  503  0.59028695778E+02  0.12515148239E+03 -0.54351370255E+02  0.38026484444E+03  0.35000000000E+03 0.  0.
        1    1    1    2  502    0 -0.31869771067E+03 -0.24924886737E+03  0.72607466078E+03  0.83119049664E+03  0.00000000000E+00 0. -1.
<scales pt_clust_1="13000.00000" pt_clust_2="13000.00000" pt_clust_3="355.39106"></scales>
<clustering>
<clus scale="  376.361">  2  4  1 -1</clus>
<clus scale="  355.391">  1  5  2 -1</clus>
<clus scale="  498.801">  2  3  1 -1</clus>
</clustering>
</event>
<event>
 6   2  0.3464723E-02  0.3629795E+03  0.7816531E-02  0.1057410E+00
       21   -1    0    0  501  502  0.00000000000E+00  0.00000000000E+00  0.17858476691E+03  0.17858476691E+03  0.00000000000E+00 0. -1.
       21   -1    0    0  505  503  0.00000000000E+00  0.00000000000E+00 -0.11888558749E+04  0.11888558749E+04  0.00000000000E+00 0. -1.
  1000006    1    1    2  501    0  0.60755460944E+02 -0.40467119194E+02 -0.19796626689E+03  0.40868013971E+03  0.35000000000E+03 0.  0.
 -1000006    1    1    2    0  504 -0.58853578326E+02  0.95009849545E+02 -0.60139691846E+03  0.70474737937E+03  0.35000000000E+03 0.  0.
       21    1    1    2  504  503 -0.30340602738E+02 -0.31202773757E+02 -0.21277028841E+03  0.21717587549E+03  0.00000000000E+00 0. -1.
       21    1    1    2  505  502  0.28438720120E+02 -0.23339956594E+02  0.18623657926E+01  0.36837247213E+02  0.00000000000E+00 0. -1.
<scales pt_clust_1="13000.00000" pt_clust_2="13000.00000" pt_clust_3="43.48219" pt_clust_4="36.79014"></scales>
<clustering>
<clus scale="   36.790">  1  6  2 -1</clus>
<clus scale="   43.482">  2  5  1 -1</clus>
<clus scale="  362.980">  1  3  2 -1</clus>
<clus scale="  362.980">  1  3  2 -1</clus>
</clustering>
</event>
<event>
 4   0  0.3464723E-02  0.3689307E+03  0.7816531E-02  0.1055103E+00
       21   -1    0    0  501  502  0.00000000000E+00  0.00000000000E+00  0.26684314763E+04  0.26684314763E+04  0.00000000000E+00 0.  1.
       21   -1    0    0  502  503  0.00000000000E+00  0.00000000000E+00 -0.69659960894E+02  0.69659960894E+02  0.00000000000E+00 0.  1.
  1000006    1    1    2  501    0 -0.11666122216E+03 -0.15398352175E+00  0.20078127162E+04  0.20414264052E+04  0.35000000000E+03 0.  0.
 -1000006    1    1    2    0  503  0.11666122216E+03  0.15398352175E+00  0.59095879924E+03  0.69666503204E+03  0.35000000000E+03 0.  0.
<scales pt_clust_1="13000.00000" pt_clust_2="13000.00000"></scales>
<clustering>
<clus scale="  368.931">  1  3  2 -1</clus>
<clus scale="  368.931">  1  3  2 -1</clus>
</clustering>
</event>
<event>
 5   1  0.3464723E-02  0.3876390E+03  0.7816531E-02  0.1048146E+00
        2   -1    0    0  503    0  0.00000000000E+00  0.00000000000E+00  0.15381181990E+04  0.15381181990E+04  0.00000000000E+00 0.  1.
       21   -1    0    0  501  503  0.00000000000E+00  0.00000000000E+00 -0.13439195012E+04  0.13439195012E+04  0.00000000000E+00 0. -1.
  1000006    1    1    2  501    0 -0.79235405301E+02 -0.10670063145E+03 -0.55302212616E+03  0.66782987821E+03  0.35000000000E+03 0.  0.
 -1000006    1    1    2    0  502 -0.96561276607E+02  0.23361896189E+03 -0.66093674088E+03  0.78945504934E+03  0.35000000000E+03 0.  0.
        2    1    1    2  502    0  0.17579668191E+03 -0.12691833044E+03  0.14081575648E+04  0.14247527727E+04  0.00000000000E+00 0.  1.
<scales pt_clust_1="13000.00000" pt_clust_2="13000.00000" pt_clust_3="216.82421"></scales>
<clustering>
<clus scale="  216.824">  1  5  2 -1</clus>
<clus scale="  387.639">  1  4  2 -1</clus>
<clus scale="  387.639">  2  3  1 -1</clus>
</clustering>
</event>
<event>
 6   2  0.3464723E-02  0.3914536E+03  0.7816531E-02  0.1046780E+00
        4   -1    0    0  501    0  0.00000000000E+00  0.00000000000E+00  0.42339515840E+03  0.42339515840E+03  0.00000000000E+00 0. -1.
       21   -1    0    0  504  503  0.00000000000E+00  0.00000000000E+00 -0.14980349035E+04  0.14980349035E+04  0.00000000000E+00 0. -1.
  1000006    1    1    2  501    0  0.13587953570E+03 -0.64503153478E+02 -0.36041782114E+03  0.52442817509E+03  0.35000000000E+03 0.  0.
 -1000006    1    1    2    0  503 -0.18512036516E+03  0.83471523376E+02 -0.84304803460E+03  0.93512942070E+03  0.35000000000E+03 0.  0.
       21    1    1    2  504  502  0.16227865561E+02 -0.36473490042E+02 -0.16292176956E+03  0.16774135475E+03  0.00000000000E+00 0. -1.
        4    1    1    2  502    0  0.33012963897E+02  0.17505120143E+02  0.29174788024E+03  0.29413111131E+03  0.00000000000E+00 0. -1.
<scales pt_clust_1="13000.00000" pt_clust_2="13000.00000" pt_clust_3="39.87906" pt_clust_4="37.36690"></scales>
<clustering>
<clus scale="   37.367">  1  6  2 -1</clus>
<clus scale="   39.879">  2  5  1 -1</clus>
<clus scale="  391.454">  1  3  2 -1</clus>
<clus scale="  391.454">  2  3  1 -1</clus>
</clustering>
</event>
<event>
 5   1  0.3464723E-02  0.3539218E+03  0.7816531E-02  0.1061017E+00
        2   -1    0    0  501    0  0.00000000000E+00  0.00000000000E+00  0.73099612722E+03  0.73099612722E+03  0.00000000000E+00 0. -1.
       21   -1    0    0  502  503  0.00000000000E+00  0.00000000000E+00 -0.38983777605E+03  0.38983777605E+03  0.00000000000E+00 0. -1.
  1000006    1    1    2  501    0  0.86576608181E+02 -0.44465554033E+02  0.32286277063E+02  0.36471235003E+03  0.35000000000E+03 0.  0.
 -1000006    1    1    2    0  503  0.60894256410E+02  0.58607028853E+02 -0.54080498063E+02  0.36409833090E+03  0.35000000000E+03 0.  0.
        2    1    1    2  502    0 -0.14747086459E+03 -0.14141474820E+02  0.36295257216E+03  0.39202322234E+03  0.00000000000E+00 0. -1.
<scales pt_clust_1="13000.00000" pt_clust_2="13000.00000" pt_clust_3="148.14735"></scales>
<clustering>
<clus scale="  148.147">  1  5  2 -1</clus>
<clus scale="  353.922">  1  3  2 -1</clus>
<clus scale="  353.922">  2  3  1 -1</clus>
</clustering>
</event>
<event>
 6   2  0.3464723E-02  0.3501187E+03  0.7816531E-02  0.1062566E+00
       21   -1    0    0  505  502  0.00000000000E+00  0.00000000000E+00  0.10273366921E+04  0.10273366921E+04  0.00000000000E+00 0.  1.
       21   -1    0    0  504  503  0.00000000000E+00  0.00000000000E+00 -0.32432353093E+03  0.32432353093E+03  0.00000000000E+00 0.  1.
  1000006    1    1    2  501    0 -0.10063914613E+03  0.97546259867E+01  0.21437238300E+03  0.42270428086E+03  0.35000000000E+03 0.  0.
 -1000006    1    1    2    0  502 -0.30963084304E+02  0.32552817190E+01  0.63180255440E+03  0.72294106066E+03  0.35000000000E+03 0.  0.
       21    1    1    2  504  501  0.88122767205E+02  0.86017394893E+01 -0.12704625491E+03  0.15485594244E+03  0.00000000000E+00 0. -1.
       21    1    1    2  505  503  0.43479463233E+02 -0.21611647195E+02 -0.16115521326E+02  0.51158939054E+02  0.00000000000E+00 0.  1.
<scales pt_clust_1="13000.00000" pt_clust_2="13000.00000" pt_clust_3="109.22170" pt_clust_4="48.55437"></scales>
<clustering>
<clus scale="   48.554">  2  6  1 -1</clus>
<clus scale="  109.222">  2  5  1 -1</clus>
<clus scale="  350.119">  2  3  1 -1</clus>
<clus scale="  350.119">  1  3  2 -1</clus>
</clustering>
</event>
<event>
 6   2  0.3464723E-02  0.4000461E+03  0.7816531E-02  0.1043764E+00
       21   -1    0    0  501  503  0.00000000000E+00  0.00000000000E+00  0.39971007324E+03  0.39971007324E+03  0.00000000000E+00 0. -1.
       -2   -1    0    0    0  501  0.00000000000E+00  0.00000000000E+00 -0.81030345049E+03  0.81030345049E+03  0.00000000000E+00 0. -1.
  1000006    1    1    2  502    0  0.27772171345E+02  0.26743320271E+03 -0.21269660528E+03  0.48993025760E+03  0.35000000000E+03 0.  0.
 -1000006    1    1    2    0  504 -0.16413640858E+03 -0.82895603667E+02  0.15128494653E+01  0.39536657730E+03  0.35000000000E+03 0.  0.
       21    1    1    2  504  503  0.36982161139E+02 -0.49775179152E+02  0.29285881353E+01  0.62079185969E+02  0.00000000000E+00 0. -1.
       -2    1    1    2    0  502  0.99382076098E+02 -0.13476241989E+03 -0.20233820956E+03  0.26263750287E+03  0.00000000000E+00 0. -1.
<scales pt_clust_1="13000.00000" pt_clust_2="13000.00000" pt_clust_3="62.01007" pt_clust_4="172.53597"></scales>
<clustering>
<clus scale="   62.010">  1  5  2 -1</clus>
<clus scale="  172.536">  2  6  1 -1</clus>
<clus scale="  400.046">  1  4  2 -1</clus>
<clus scale="  400.046">  1  3  2 -1</clus>
</clustering>
</event>
<event>
 5   1  0.3464723E-02  0.3557467E+03  0.7816531E-02  0.1060281E+00
       21   -1    0    0  501  502  0.00000000000E+00  0.00000000000E+00  0.10804037189E+04  0.10804037189E+04  0.00000000000E+00 0.  1.
       21   -1    0    0  504  503  0.00000000000E+00  0.00000000000E+00 -0.28555710746E+03  0.28555710746E+03  0.00000000000E+00 0.  1.
  1000006    1    1    2  501    0  0.17713240657E+03  0.45443970594E+02  0.36765081340E+03  0.53954440458E+03  0.35000000000E+03 0.  0.
 -1000006    1    1    2    0  503  0.14530370666E+03 -0.56223097064E+02  0.20321089038E+03  0.43366907866E+03  0.35000000000E+03 0.  0.
       21    1    1    2  504  502 -0.32243611323E+03  0.10779126470E+02  0.22398490769E+03  0.39274734315E+03  0.00000000000E+00 0.  1.
<scales pt_clust_1="13000.00000" pt_clust_2="13000.00000" pt_clust_3="322.61624"></scales>
<clustering>
<clus scale="  322.616">  2  5  1 -1</clus>
<clus scale="  355.747">  2  4  1 -1</clus>
<clus scale="  355.747">  1  3  2 -1</clus>
</clustering>
</event>
<event>
 5   1  0.3464723E-02  0.3681967E+03  0.7816531E-02  0.1055385E+00
       21   -1    0    0  504  502  0.00000000000E+00  0.00000000000E+00  0.53723235574E+03  0.53723235574E+03  0.00000000000E+00 0. -1.
       21   -1    0    0  501  503  0.00000000000E+00  0.00000000000E+00 -0.44362309890E+03  0.44362309890E+03  0.00000000000E+00 0. -1.
  1000006    1    1    2  501    0  0.11162194333E+03 -0.50772192339E+02 -0.11644318329E+03  0.38871106066E+03  0.35000000000E+03 0.  0.
 -1000006    1    1    2    0  502 -0.54992336510E+02  0.10421399438E+03  0.12597536226E+01  0.36930515929E+03  0.35000000000E+03 0.  0.
       21    1    1    2  504  503 -0.56629606819E+02 -0.53441802042E+02  0.20879268651E+03  0.22283923469E+03  0.00000000000E+00 0. -1.
<scales pt_clust_1="13000.00000" pt_clust_2="13000.00000" pt_clust_3="77.86487"></scales>
<clustering>
<clus scale="   77.865">  1  5  2 -1</clus>
<clus scale="  368.197">  2  3  1 -1</clus>
<clus scale="  368.197">  1  3  2 -1</clus>
</clustering>
</event>
<event>
 4   0  0.3464723E-02  0.3841664E+03  0.7816531E-02  0.1049404E+00
        2   -1    0    0  502    0  0.00000000000E+00  0.00000000000E+00  0.12693867391E+04  0.12693867391E+04  0.00000000000E+00 0. -1.
       -2   -1    0    0    0  501  0.00000000000E+00  0.00000000000E+00 -0.17926864184E+03  0.17926864184E+03  0.00000000000E+00 0.  1.
  1000006    1    1    2  502    0 -0.10856024365E+03 -0.11531923371E+03  0.11565162892E+03  0.40119714784E+03  0.35000000000E+03 0.  0.
 -1000006    1    1    2    0  501  0.10856024365E+03  0.11531923371E+03  0.97446646831E+03  0.10474582331E+04  0.35000000000E+03 0.  0.
<scales pt_clust_1="13000.00000" pt_clust_2="13000.00000"></scales>
<clustering>
<clus scale="  736.712">  3  4 -1 -1</clus>
<clus scale="  384.166">  1  3  2 -1</clus>
</clustering>
</event>
<event>
 5   1  0.3464723E-02  0.3882806E+03  0.7816531E-02  0.1047915E+00
       21   -1    0    0  501  502  0.00000000000E+00  0.00000000000E+00  0.20650425536E+03  0.20650425536E+03  0.00000000000E+00 0.  1.
       21   -1    0    0  504  503  0.00000000000E+00  0.00000000000E+00 -0.81340781049E+03  0.81340781049E+03  0.00000000000E+00 0.  1.
  1000006    1    1    2  501    0  0.62237425748E+02 -0.16733376793E+03 -0.23256997250E+03  0.45657735288E+03  0.35000000000E+03 0.  0.
 -1000006    1    1    2    0  503 -0.32384178043E+02  0.15336120521E+03 -0.31854824892E+03  0.49853924735E+03  0.35000000000E+03 0.  0.
       21    1    1    2  504  502 -0.29853247705E+02  0.13972562721E+02 -0.55785333710E+02  0.64795465618E+02  0.00000000000E+00 0.  1.
<scales pt_clust_1="13000.00000" pt_clust_2="13000.00000" pt_clust_3="32.96132"></scales>
<clustering>
<clus scale="   32.961">  2  5  1 -1</clus>
<clus scale="  388.281">  2  4  1 -1</clus>
<clus scale="  388.281">  1  3  2 -1</clus>
</clustering>
</event>
<event>
 6   2  0.3464723E-02  0.3692923E+03  0.7816531E-02  0.1054964E+00
       21   -1    0    0  501  503  0.00000000000E+00  0.00000000000E+00  0.24501666424E+03  0.24501666424E+03  0.00000000000E+00 0. -1.
       -1   -1    0    0    0  501  0.00000000000E+00  0.00000000000E+00 -0.25700946492E+04  0.25700946492E+04  0.00000000000E+00 0. -1.
  1000006    1    1    2  502    0 -0.66402222838E+02  0.15225542767E+03 -0.69470325938E+03  0.79542667107E+03  0.35000000000E+03 0.  0.
 -1000006    1    1    2    0  503 -0.16836924296E+03  0.22852587327E+02 -0.29709733166E+02  0.39019624674E+03  0.35000000000E+03 0.  0.
       21    1    1    2  504  502  0.10012261932E+03 -0.58266575141E+02 -0.43017571785E+03  0.44550048362E+03  0.00000000000E+00 0. -1.
       -1    1    1    2    0  504  0.13464884648E+03 -0.11684143986E+03 -0.11704892745E+04  0.11839879120E+04  0.00000000000E+00 0. -1.
<scales pt_clust_1="13000.00000" pt_clust_2="13000.00000" pt_clust_3="68.98414" pt_clust_4="305.12950"></scales>
<clustering>
<clus scale="   68.984">  5  6 -1 -1</clus>
<clus scale="  305.130">  2  5  1 -1</clus>
<clus scale="  369.292">  1  4  2 -1</clus>
<clus scale="  369.292">  1  3  2 -1</clus>
</clustering>
</event>
<event>
 6   2  0.3464723E-02  0.4339751E+03  0.7816531E-02  0.1032612E+00
       21   -1    0    0  504  502  0.00000000000E+00  0.00000000000E+00  0.11718351697E+04  0.11718351697E+04  0.00000000000E+00 0. -1.
       21   -1    0    0  505  503  0.00000000000E+00  0.00000000000E+00 -0.74467888402E+03  0.74467888402E+03  0.00000000000E+00 0. -1.
  1000006    1    1    2  501    0 -0.67759566018E+02  0.22954435592E+03  0.87788674446E+03  0.97491902547E+03  0.35000000000E+03 0.  0.
 -1000006    1    1    2    0  503  0.38134491048E+02 -0.22679328598E+03 -0.61300803887E+03  0.74240709162E+03  0.35000000000E+03 0.  0.
       21    1    1    2  504  501  0.28536036172E+02  0.28155465124E+02  0.16339624590E+03  0.16824199461E+03  0.00000000000E+00 0. -1.
       21    1    1    2  505  502  0.10890387983E+01 -0.30906535070E+02 -0.11186657843E+01  0.30945942039E+02  0.00000000000E+00 0. -1.
<scales pt_clust_1="13000.00000" pt_clust_2="13000.00000" pt_clust_3="40.01832" pt_clust_4="30.92572"></scales>
<clustering>
<clus scale="   30.926">  2  6  1 -1</clus>
<clus scale="   40.018">  1  5  2 -1</clus>
<clus scale="  433.975">  2  4  1 -1</clus>
<clus scale="  433.975">  1  3  2 -1</clus>
</clustering>
</event>
<event>
 5   1  0.3464723E-02  0.3760902E+03  0.7816531E-02  0.1052388E+00
       21   -1    0    0  502  503  0.00000000000E+00  0.00000000000E+00  0.10415400599E+04  0.10415400599E+04  0.00000000000E+00 0.  1.
       -4   -1    0    0    0  501  0.00000000000E+00  0.00000000000E+00 -0.37640969034E+03  0.37640969034E+03  0.00000000000E+00 0. -1.
  1000006    1    1    2  502    0 -0.86727871627E+02  0.10459217814E+03  0.60571114123E+03  0.71263401130E+03  0.35000000000E+03 0.  0.
 -1000006    1    1    2    0  501  0.12772649329E+03 -0.72309282544E+02  0.28446275157E+03  0.47430132454E+03  0.35000000000E+03 0.  0.
       -4    1    1    2    0  503 -0.40998621667E+02 -0.32282895592E+02 -0.22504352322E+03  0.23101441442E+03  0.00000000000E+00 0. -1.
<scales pt_clust_1="13000.00000" pt_clust_2="13000.00000" pt_clust_3="52.18307"></scales>
<clustering>
<clus scale="   52.183">  2  5  1 -1</clus>
<clus scale="  376.090">  1  3  2 -1</clus>
<clus scale="  376.090">  1  3  2 -1</clus>
</clustering>
</event>
<event>
 6   2  0.3464723E-02  0.3759189E+03  0.7816531E-02  0.1052453E+00
       21   -1    0    0  501  503  0.00000000000E+00  0.00000000000E+00  0.32804538758E+03  0.32804538758E+03  0.00000000000E+00 0.  1.
       21   -1    0    0  502  504  0.00000000000E+00  0.00000000000E+00 -0.68104236681E+03  0.68104236681E+03  0.00000000000E+00 0.  1.
  1000006    1    1    2  501    0  0.29639385888E+02  0.15627159207E+03  0.21684146218E+02  0.38505779551E+03  0.35000000000E+03 0.  0.
 -1000006    1    1    2    0  504 -0.99440353486E+02 -0.67293399165E+02 -0.26717818137E+03  0.45640000666E+03  0.35000000000E+03 0.  0.
        1    1    1    2  502    0  0.18518078683E+02 -0.70472694554E+02 -0.72811287291E+02  0.10300875435E+03  0.00000000000E+00 0. -1.
       -1    1    1    2    0  503  0.51282888915E+02 -0.18505498352E+02 -0.34691656788E+02  0.64621197880E+02  0.00000000000E+00 0.  1.
<scales pt_clust_1="13000.00000" pt_clust_2="13000.00000" pt_clust_3="128.61927" pt_clust_4="128.61927"></scales>
<clustering>
<clus scale="   52.996">  5  6 -1 -1</clus>
<clus scale="  128.619">  2  5  1 -1</clus>
<clus scale="  375.919">  1  3  2 -1</clus>
<clus scale="  375.919">  1  3  2 -1</clus>
</clustering>
</event>
<event>
 4   0  0.3464723E-02  0.3868650E+03  0.7816531E-02  0.1048425E+00
       21   -1    0    0  503  502  0.00000000000E+00  0.00000000000E+00  0.21797794784E+03  0.21797794784E+03  0.00000000000E+00 0. -1.
       21   -1    0    0  501  503  0.00000000000E+00  0.00000000000E+00 -0.10087946339E+04  0.10087946339E+04  0.00000000000E+00 0. -1.
  1000006    1    1    2  501    0  0.31708417465E+02  0.16173773190E+03 -0.74205672719E+03  0.83684688206E+03  0.35000000000E+03 0.  0.
 -1000006    1    1    2    0  502 -0.31708417465E+02 -0.16173773190E+03 -0.48759958849E+02  0.38992569965E+03  0.35000000000E+03 0.  0.
<scales pt_clust_1="13000.00000" pt_clust_2="13000.00000"></scales>
<clustering>
<clus scale="  386.865">  2  3  1 -1</clus>
<clus scale="  386.865">  1  3  2 -1</clus>
</clustering>
</event>
<event>
 6   2  0.3464723E-02  0.3671448E+03  0.7816531E-02  0.1055790E+00
       21   -1    0    0  501  503  0.00000000000E+00  0.00000000000E+00  0.21751048072E+03  0.21751048072E+03  0.00000000000E+00 0.  1.
        2   -1    0    0  504    0  0.00000000000E+00  0.00000000000E+00 -0.13851236752E+04  0.13851236752E+04  0.00000000000E+00 0.  1.
  1000006    1    1    2  501    0 -0.47418904251E+02  0.10562200690E+03 -0.11465016156E+03  0.38606893215E+03  0.35000000000E+03 0.  0.
 -1000006    1    1    2    0  502  0.31070258991E+02 -0.47299428947E+02 -0.46381471927E+03  0.58380364060E+03  0.35000000000E+03 0.  0.
       21    1    1    2  504  503 -0.47142317403E+02  0.32946898128E+02 -0.34475337002E+02  0.67055537041E+02  0.00000000000E+00 0.  1.
        2    1    1    2  502    0  0.63490962663E+02 -0.91269476084E+02 -0.55467297669E+03  0.56570604617E+03  0.00000000000E+00 0.  1.
<scales pt_clust_1="13000.00000" pt_clust_2="13000.00000" pt_clust_3="57.51431" pt_clust_4="109.70284"></scales>
<clustering>
<clus scale="   57.514">  1  5  2 -1</clus>
<clus scale="  109.703">  2  6  1 -1</clus>
<clus scale="  367.145">  1  3  2 -1</clus>
<clus scale="  367.145">  1  3  2 -1</clus>
</clustering>
</event>
<event>
 4   0  0.3464723E-02  0.3690082E+03  0.7816531E-02  0.1055073E+00
       21   -1    0    0  503  502  0.00000000000E+00  0.00000000000E+00  0.15657923769E+04  0.15657923769E+04  0.00000000000E+00 0.  1.
       21   -1    0    0  501  503  0.00000000000E+00  0.00000000000E+00 -0.95785949937E+02  0.95785949937E+02  0.00000000000E+00 0.  1.
  1000006    1    1    2  501    0  0.10759983330E+03 -0.45708935476E+02  0.48286965144E+03  0.60772537481E+03  0.35000000000E+03 0.  0.
 -1000006    1    1    2    0  502 -0.10759983330E+03  0.45708935476E+02  0.98713677554E+03  0.10538529520E+04  0.35000000000E+03 0.  0.
<scales pt_clust_1="13000.00000" pt_clust_2="13000.00000"></scales>
<clustering>
<clus scale="  369.008">  2  3  1 -1</clus>
<clus scale="  369.008">  1  3  2 -1</clus>
</clustering>
</event>
<event>
 5   1  0.3464723E-02  0.4393430E+03  0.7816531E-02  0.1030949E+00
       21   -1    0    0  504  502  0.00000000000E+00  0.00000000000E+00  0.66388907816E+03  0.66388907816E+03  0.00000000000E+00 0. -1.
       21   -1    0    0  502  503  0.00000000000E+00  0.00000000000E+00 -0.68426023576E+03  0.68426023576E+03  0.00000000000E+00 0. -1.
  1000006    1    1    2  501    0  0.26410026771E+03 -0.12907354049E+03  0.43700858818E+03  0.63236495507E+03  0.35000000000E+03 0.  0.
 -1000006    1    1    2    0  503 -0.23959300005E+03  0.10410592858E+03 -0.49786416918E+03  0.66227757096E+03  0.35000000000E+03 0.  0.
       21    1    1    2  504  501 -0.24507267657E+02  0.24967611901E+02  0.40484423411E+02  0.53506787896E+02  0.00000000000E+00 0. -1.
<scales pt_clust_1="13000.00000" pt_clust_2="13000.00000" pt_clust_3="34.98554"></scales>
<clustering>
<clus scale="   34.986">  1  5  2 -1</clus>
<clus scale="  439.343">  1  3  2 -1</clus>
<clus scale="  439.343">  1  3  2 -1</clus>
</clustering>
</event>
<event>
 5   1  0.3464723E-02  0.4896650E+03  0.7816531E-02  0.1016512E+00
       21   -1    0    0  501  503  0.00000000000E+00  0.00000000000E+00  0.40130340345E+03  0.40130340345E+03  0.00000000000E+00 0. -1.
        1   -1    0    0  503    0  0.00000000000E+00  0.00000000000E+00 -0.21446776312E+04  0.21446776312E+04  0.00000000000E+00 0.  1.
  1000006    1    1    2  501    0 -0.32388606105E+03  0.78245224467E+02 -0.70889095703E+02  0.48841556034E+03  0.35000000000E+03 0.  0.
 -1000006    1    1    2    0  502  0.33010042439E+03 -0.13042387320E+03 -0.13128931910E+03  0.51547411399E+03  0.35000000000E+03 0.  0.
        1    1    1    2  502    0 -0.62143633486E+01  0.52178648735E+02 -0.15411958130E+04  0.15420913603E+04  0.00000000000E+00 0.  1.
<scales pt_clust_1="13000.00000" pt_clust_2="13000.00000" pt_clust_3="52.54740"></scales>
<clustering>
<clus scale="   52.547">  2  5  1 -1</clus>
<clus scale="  489.665">  2  4  1 -1</clus>
<clus scale="  489.665">  1  3  2 -1</clus>
</clustering>
</event>
<event>
 5   1  0.3464723E-02  0.4196845E+03  0.7816531E-02  0.1037169E+00
        1   -1    0    0  501    0  0.00000000000E+00  0.00000000000E+00  0.10725971331E+04  0.10725971331E+04  0.00000000000E+00 0. -1.
       21   -1    0    0  502  503  0.00000000000E+00  0.00000000000E+00 -0.26176382427E+03  0.26176382427E+03  0.00000000000E+00 0. -1.
  1000006    1    1    2  501    0 -0.26104877977E+02  0.23428582309E+03  0.38179231533E+03  0.56906650192E+03  0.35000000000E+03 0.  0.
 -1000006    1    1    2    0  503 -0.13758975678E+02 -0.23010177764E+03  0.96122526370E+02  0.42997171717E+03  0.35000000000E+03 0.  0.
        1    1    1    2  502    0  0.39863853655E+02 -0.41840454488E+01  0.33291846716E+03  0.33532273833E+03  0.00000000000E+00 0. -1.
<scales pt_clust_1="13000.00000" pt_clust_2="13000.00000" pt_clust_3="40.08283"></scales>
<clustering>
<clus scale="   40.083">  1  5  2 -1</clus>
<clus scale="  419.685">  1  3  2 -1</clus>
<clus scale="  419.685">  2  3  1 -1</clus>
</clustering>
</event>
<event>
 6   2  0.3464723E-02  0.6853820E+03  0.7816531E-02  0.9742563E-01
       21   -1    0    0  504  502  0.00000000000E+00  0.00000000000E+00  0.27472245432E+04  0.27472245432E+04  0.00000000000E+00 0. -1.
       21   -1    0    0  505  503  0.00000000000E+00  0.00000000000E+00 -0.70308626964E+03  0.70308626964E+03  0.00000000000E+00 0. -1.
  1000006    1    1    2  501    0  0.41653228992E+03  0.31402292056E+03  0.70985923046E+03  0.94789749987E+03  0.35000000000E+03 0.  0.
 -1000006    1    1    2    0  502 -0.28041641877E+03 -0.59496644998E+03  0.17659177894E+04  0.19166596159E+04  0.35000000000E+03 0.  0.
       21    1    1    2  504  503 -0.19040314064E+03  0.28323592955E+03 -0.38059280863E+03  0.51120136320E+03  0.00000000000E+00 0. -1.
       21    1    1    2  505  501  0.54287269494E+02 -0.22924001399E+01 -0.51045937655E+02  0.74552333824E+02  0.00000000000E+00 0. -1.
<scales pt_clust_1="13000.00000" pt_clust_2="13000.00000" pt_clust_3="320.32292" pt_clust_4="54.33565"></scales>
<clustering>
<clus scale="   54.336">  2  6  1 -1</clus>
<clus scale="  320.323">  2  5  1 -1</clus>
<clus scale="  685.382">  1  4  2 -1</clus>
<clus scale="  685.382">  1  3  2 -1</clus>
</clustering>
</event>
<event>
 6   2  0.3464723E-02  0.3737659E+03  0.7816531E-02  0.1053262E+00
       21   -1    0    0  502  503  0.00000000000E+00  0.00000000000E+00  0.45225987192E+03  0.45225987192E+03  0.00000000000E+00 0. -1.
        1   -1    0    0  501    0  0.00000000000E+00  0.00000000000E+00 -0.26673422949E+04  0.26673422949E+04  0.00000000000E+00 0. -1.
  1000006    1    1    2  501    0  0.32454524924E+02 -0.18321380251E+03 -0.44997028444E+03  0.59966144657E+03  0.35000000000E+03 0.  0.
 -1000006    1    1    2    0  504  0.13635817058E+02  0.12748124527E+03  0.15660583938E+03  0.40430532068E+03  0.35000000000E+03 0.  0.
       21    1    1    2  504  503  0.41600210007E+02 -0.17638178679E+02  0.89981465391E+02  0.10068935859E+03  0.00000000000E+00 0. -1.
        1    1    1    2  502    0 -0.87690551989E+02  0.73370735922E+02 -0.20116994433E+04  0.20149460410E+04  0.00000000000E+00 0. -1.
<scales pt_clust_1="13000.00000" pt_clust_2="13000.00000" pt_clust_3="45.18498" pt_clust_4="114.14021"></scales>
<clustering>
<clus scale="   45.185">  1  5  2 -1</clus>
<clus scale="  114.140">  2  6  1 -1</clus>
<clus scale="  373.766">  2  3  1 -1</clus>
<clus scale="  373.766">  1  3  2 -1</clus>
</clustering>
</event>
<event>
 4   0  0.3464723E-02  0.4664019E+03  0.7816531E-02  0.1022941E+00
       21   -1    0    0  501  502  0.00000000000E+00  0.00000000000E+00  0.68568314652E+03  0.68568314652E+03  0.00000000000E+00 0.  1.
       21   -1    0    0  502  503  0.00000000000E+00  0.00000000000E+00 -0.31841305702E+03  0.31841305702E+03  0.00000000000E+00 0. -1.
  1000006    1    1    2  501    0  0.96728968662E+02 -0.29270162039E+03  0.21402018009E+03  0.51316212784E+03  0.35000000000E+03 0.  0.
 -1000006    1    1    2    0  503 -0.96728968662E+02  0.29270162039E+03  0.15324990941E+03  0.49093407571E+03  0.35000000000E+03 0.  0.
<scales pt_clust_1="13000.00000" pt_clust_2="13000.00000"></scales>
<clustering>
<clus scale="  466.402">  1  3  2 -1</clus>
<clus scale="  466.402">  1  3  2 -1</clus>
</clustering>
</event>
<event>
 6   2  0.3464723E-02  0.3523098E+03  0.7816531E-02  0.1061671E+00
        2   -1    0    0  503    0  0.00000000000E+00  0.00000000000E+00  0.12361898584E+04  0.12361898584E+04  0.00000000000E+00 0. -1.
       21   -1    0    0  501  503  0.00000000000E+00  0.00000000000E+00 -0.97266814559E+03  0.97266814559E+03  0.00000000000E+00 0. -1.
  1000006    1    1    2  501    0  0.72134959864E+00 -0.28133834562E+02 -0.53692581740E+03  0.64154607503E+03  0.35000000000E+03 0.  0.
 -1000006    1    1    2    0  504  0.10773821802E+02 -0.18116846936E+03 -0.25180513168E+03  0.46780756072E+03  0.35000000000E+03 0.  0.
       21    1    1    2  504  502  0.81000493226E+02  0.13591131348E+03  0.31127170173E+03  0.34917479481E+03  0.00000000000E+00 0.  1.
        2    1    1    2  502    0 -0.92495664626E+02  0.73390990434E+02  0.74098096018E+03  0.75032957345E+03  0.00000000000E+00 0. -1.
<scales pt_clust_1="13000.00000" pt_clust_2="13000.00000" pt_clust_3="186.26188" pt_clust_4="118.07491"></scales>
<clustering>
<clus scale="  118.075">  1  6  2 -1</clus>
<clus scale="  186.262">  1  5  2 -1</clus>
<clus scale="  352.310">  1  4  2 -1</clus>
<clus scale="  352.310">  2  3  1 -1</clus>
</clustering>
</event>
<event>
 6   2  0.3464723E-02  0.4208726E+03  0.7816531E-02  0.1036783E+00
        2   -1    0    0  504    0  0.00000000000E+00  0.00000000000E+00  0.42888462843E+04  0.42888462843E+04  0.00000000000E+00 0. -1.
       21   -1    0    0  502  503  0.00000000000E+00  0.00000000000E+00 -0.18352515933E+03  0.18352515933E+03  0.00000000000E+00 0.  1.
  1000006    1    1    2  501    0 -0.17503499363E+03  0.20944408773E+03  0.59886285410E+03  0.74541316926E+03  0.35000000000E+03 0.  0.
 -1000006    1    1    2    0  503 -0.61268134579E+02 -0.24593393883E+03  0.40831305832E+03  0.59452236306E+03  0.35000000000E+03 0.  0.
       21    1    1    2  504  501  0.16388650369E+03  0.36681492206E+02  0.40661804423E+03  0.43993471317E+03  0.00000000000E+00 0.  1.
        2    1    1    2  502    0  0.72416624521E+02 -0.19164110872E+00  0.26915271683E+04  0.26925011981E+04  0.00000000000E+00 0. -1.
<scales pt_clust_1="13000.00000" pt_clust_2="13000.00000" pt_clust_3="186.71070" pt_clust_4="72.41688"></scales>
<clustering>
<clus scale="   72.417">  1  6  2 -1</clus>
<clus scale="  186.711">  1  5  2 -1</clus>
<clus scale="  420.873">  1  3  2 -1</clus>
<clus scale="  420.873">  2  3  1 -1</clus>
</clustering>
</event>
<event>
 4   0  0.3464723E-02  0.3562197E+03  0.7816531E-02  0.1060091E+00
       21   -1    0    0  501  502  0.00000000000E+00  0.00000000000E+00  0.23520458940E+03  0.23520458940E+03  0.00000000000E+00 0. -1.
       21   -1    0    0  502  503  0.00000000000E+00  0.00000000000E+00 -0.54039299335E+03  0.54039299335E+03  0.00000000000E+00 0. -1.
  1000006    1    1    2  501    0 -0.54171318487E+01 -0.66054251892E+02 -0.13681611814E+03  0.38159030346E+03  0.35000000000E+03 0.  0.
 -1000006    1    1    2    0  503  0.54171318487E+01  0.66054251892E+02 -0.16837228582E+03  0.39400727930E+03  0.35000000000E+03 0.  0.
<scales pt_clust_1="13000.00000" pt_clust_2="13000.00000"></scales>
<clustering>
<clus scale="  356.220">  1  3  2 -1</clus>
<clus scale="  356.220">  1  3  2 -1</clus>
</clustering>
</event>
<event>
 4   0  0.3464723E-02  0.3531151E+03  0.7816531E-02  0.1061344E+00
       21   -1    0    0  501  502  0.00000000000E+00  0.00000000000E+00  0.78555669658E+03  0.78555669658E+03  0.00000000000E+00 0. -1.
       21   -1    0    0  502  503  0.00000000000E+00  0.00000000000E+00 -0.15976953417E+03  0.15976953417E+03  0.00000000000E+00 0. -1.
  1000006    1    1    2  501    0 -0.30285185491E+02  0.35679849968E+02  0.35104714280E+03  0.49792001428E+03  0.35000000000E+03 0.  0.
 -1000006    1    1    2    0  503  0.30285185491E+02 -0.35679849968E+02  0.27474001961E+03  0.44740621646E+03  0.35000000000E+03 0.  0.
<scales pt_clust_1="13000.00000" pt_clust_2="13000.00000"></scales>
<clustering>
<clus scale="  353.115">  1  3  2 -1</clus>
<clus scale="  353.115">  1  3  2 -1</clus>
</clustering>
</event>
<event>
 5   1  0.3464723E-02  0.6397712E+03  0.7816531E-02  0.9889345E-01
       21   -1    0    0  504  502  0.00000000000E+00  0.00000000000E+00  0.60512259094E+03  0.60512259094E+03  0.00000000000E+00 0. -1.
       21   -1    0    0  501  503  0.00000000000E+00  0.00000000000E+00 -0.20956008104E+04  0.20956008104E+04  0.00000000000E+00 0. -1.
  1000006    1    1    2  501    0 -0.35056204590E+03  0.16195047137E+03 -0.53169705685E+03  0.74452902124E+03  0.35000000000E+03 0.  0.
 -1000006    1    1    2    0  502 -0.59401957934E+00 -0.58030456723E+03 -0.11849291343E+04  0.13650314271E+04  0.35000000000E+03 0.  0.
       21    1    1    2  504  503  0.35115606548E+03  0.41835409586E+03  0.22614797174E+03  0.59116295297E+03  0.00000000000E+00 0. -1.
<scales pt_clust_1="13000.00000" pt_clust_2="13000.00000" pt_clust_3="535.54387"></scales>
<clustering>
<clus scale="  521.173">  2  3  1 -1</clus>
<clus scale="  535.544">  1  5  2 -1</clus>
<clus scale="  639.771">  1  3  2 -1</clus>
</clustering>
</event>
<event>
 5   1  0.3464723E-02  0.3673019E+03  0.7816531E-02  0.1055729E+00
       21   -1    0    0  504  502  0.00000000000E+00  0.00000000000E+00  0.16369443995E+04  0.16369443995E+04  0.00000000000E+00 0.  1.
       21   -1    0    0  501  503  0.00000000000E+00  0.00000000000E+00 -0.47109906754E+03  0.47109906754E+03  0.00000000000E+00 0.  1.
  1000006    1    1    2  501    0  0.12008031556E+03  0.11179398490E+03 -0.26667863440E+03  0.46961119162E+03  0.35000000000E+03 0.  0.
 -1000006    1    1    2    0  502  0.26709061108E+02  0.90069605615E+02  0.27665046211E+03  0.45591817905E+03  0.35000000000E+03 0.  0.
       21    1    1    2  504  503 -0.14678937667E+03 -0.20186359051E+03  0.11558735043E+04  0.11825140964E+04  0.00000000000E+00 0.  1.
<scales pt_clust_1="13000.00000" pt_clust_2="13000.00000" pt_clust_3="249.59173"></scales>
<clustering>
<clus scale="  249.592">  1  5  2 -1</clus>
<clus scale="  367.302">  1  4  2 -1</clus>
<clus scale="  367.302">  1  3  2 -1</clus>
</clustering>
</event>
<event>
 5   1  0.3464723E-02  0.3693728E+03  0.7816531E-02  0.1054933E+00
       21   -1    0    0  501  502  0.00000000000E+00  0.00000000000E+00  0.70140784010E+03  0.70140784010E+03  0.00000000000E+00 0.  1.
       21   -1    0    0  504  503  0.00000000000E+00  0.00000000000E+00 -0.28534490338E+03  0.28534490338E+03  0.00000000000E+00 0.  1.
  1000006    1    1    2  501    0 -0.10511740475E+03  0.66598018851E+02  0.44748615700E+03  0.58157443685E+03  0.35000000000E+03 0.  0.
 -1000006    1    1    2    0  503  0.98076379665E+02 -0.28475616439E+02 -0.34864967301E+02  0.36625865577E+03  0.35000000000E+03 0.  0.
       21    1    1    2  504  502  0.70410250865E+01 -0.38122402412E+02  0.34417470217E+01  0.38919650853E+02  0.00000000000E+00 0. -1.
<scales pt_clust_1="13000.00000" pt_clust_2="13000.00000" pt_clust_3="38.76717"></scales>
<clustering>
<clus scale="   38.767">  2  5  1 -1</clus>
<clus scale="  369.373">  1  3  2 -1</clus>
<clus scale="  369.373">  1  3  2 -1</clus>
</clustering>
</event>
<event>
 6   2  0.3464723E-02  0.5030934E+03  0.7816531E-02  0.1012975E+00
       21   -1    0    0  504  503  0.00000000000E+00  0.00000000000E+00  0.33211848601E+03  0.33211848601E+03  0.00000000000E+00 0. -1.
        1   -1    0    0  501    0  0.00000000000E+00  0.00000000000E+00 -0.11902953064E+04  0.11902953064E+04  0.00000000000E+00 0. -1.
  1000006    1    1    2  501    0  0.35380281364E+03  0.17814365302E+03 -0.31676140635E+03  0.61623808760E+03  0.35000000000E+03 0.  0.
 -1000006    1    1    2    0  503 -0.35149544885E+03 -0.15050323153E+02 -0.52145231662E+03  0.71985281919E+03  0.35000000000E+03 0.  0.
       21    1    1    2  504  502  0.33561599341E+02 -0.69424182038E+02  0.17815355417E+02  0.79142181488E+02  0.00000000000E+00 0. -1.
        1    1    1    2  502    0 -0.35868964134E+02 -0.93669147828E+02 -0.37778452847E+02  0.10718070415E+03  0.00000000000E+00 0. -1.
<scales pt_clust_1="13000.00000" pt_clust_2="13000.00000" pt_clust_3="77.00395" pt_clust_4="185.25035"></scales>
<clustering>
<clus scale="   77.004">  5  6 -1 -1</clus>
<clus scale="  185.250">  1  5  2 -1</clus>
<clus scale="  829.718">  3  4 -1 -1</clus>
<clus scale="  503.093">  1  3  2 -1</clus>
</clustering>
</event>
<event>
 6   2  0.3464723E-02  0.3782603E+03  0.7816531E-02  0.1051579E+00
       21   -1    0    0  502  503  0.00000000000E+00  0.00000000000E+00  0.10801880855E+03  0.10801880855E+03  0.00000000000E+00 0.  1.
       -2   -1    0    0    0  501  0.00000000000E+00  0.00000000000E+00 -0.24070562611E+04  0.24070562611E+04  0.00000000000E+00 0. -1.
  1000006    1    1    2  502    0  0.64235052062E+02 -0.10604716396E+03 -0.14985452099E+04  0.15438620045E+04  0.35000000000E+03 0.  0.
 -1000006    1    1    2    0  501 -0.23482626293E+02  0.19551728268E+03 -0.75311293554E+03  0.85349723798E+03  0.35000000000E+03 0.  0.
       21    1    1    2  504  503 -0.65567768869E+01 -0.56165598426E+02 -0.40349711597E+02  0.69467006526E+02  0.00000000000E+00 0.  1.
       -2    1    1    2    0  504 -0.34195648882E+02 -0.33304520295E+02 -0.70295954741E+01  0.48248820577E+02  0.00000000000E+00 0. -1.
<scales pt_clust_1="13000.00000" pt_clust_2="13000.00000" pt_clust_3="40.53613" pt_clust_4="107.76000"></scales>
<clustering>
<clus scale="   40.536">  5  6 -1 -1</clus>
<clus scale="  107.760">  1  5  2 -1</clus>
<clus scale="  547.906">  3  4 -1 -1</clus>
<clus scale="  378.260">  1  3  2 -1</clus>
</clustering>
</event>
<event>
 4   0  0.3464723E-02  0.4160734E+03  0.7816531E-02  0.1038352E+00
       21   -1    0    0  501  502  0.00000000000E+00  0.00000000000E+00  0.21108383977E+04  0.21108383977E+04  0.00000000000E+00 0.  1.
       21   -1    0    0  502  503  0.00000000000E+00  0.00000000000E+00 -0.10685258633E+03  0.10685258633E+03  0.00000000000E+00 0.  1.
  1000006    1    1    2  501    0 -0.18276122781E+03 -0.13120753235E+03  0.15366151137E+04  0.15919494624E+04  0.35000000000E+03 0.  0.
 -1000006    1    1    2    0  503  0.18276122781E+03  0.13120753235E+03  0.46737069761E+03  0.62574152165E+03  0.35000000000E+03 0.  0.
<scales pt_clust_1="13000.00000" pt_clust_2="13000.00000"></scales>
<clustering>
<clus scale="  416.073">  1  3  2 -1</clus>
<clus scale="  416.073">  1  3  2 -1</clus>
</clustering>
</event>
<event>
 5   1  0.3464723E-02  0.4142951E+03  0.7816531E-02  0.1038939E+00
       21   -1    0    0  501  502  0.00000000000E+00  0.00000000000E+00  0.10296395508E+04  0.10296395508E+04  0.00000000000E+00 0. -1.
       21   -1    0    0  504  503  0.00000000000E+00  0.00000000000E+00 -0.30704180502E+03  0.30704180502E+03  0.00000000000E+00 0. -1.
  1000006    1    1    2  501    0 -0.17622808953E+03  0.16694025303E+03  0.51777238275E+03  0.67045777493E+03  0.35000000000E+03 0.  0.
 -1000006    1    1    2    0  503  0.87141242020E+02 -0.20151531209E+03 -0.28444317740E+02  0.41413898184E+03  0.35000000000E+03 0.  0.
       21    1    1    2  504  502  0.89086847511E+02  0.34575059067E+02  0.23326968075E+03  0.25208459903E+03  0.00000000000E+00 0. -1.
<scales pt_clust_1="13000.00000" pt_clust_2="13000.00000" pt_clust_3="95.56098"></scales>
<clustering>
<clus scale="   95.561">  1  5  2 -1</clus>
<clus scale="  414.295">  2  4  1 -1</clus>
<clus scale="  414.295">  1  3  2 -1</clus>
</clustering>
</event>
<event>
 5   1  0.3464723E-02  0.1002813E+04  0.7816531E-02  0.9305465E-01
        2   -1    0    0  502    0  0.00000000000E+00  0.00000000000E+00  0.12446488106E+04  0.12446488106E+04  0.00000000000E+00 0.  1.
       -2   -1    0    0    0  501  0.00000000000E+00  0.00000000000E+00 -0.10764901020E+04  0.10764901020E+04  0.00000000000E+00 0. -1.
  1000006    1    1    2  502    0  0.14970938543E+03 -0.93705530042E+03  0.60277468599E+03  0.11774221240E+04  0.35000000000E+03 0.  0.
 -1000006    1    1    2    0  503 -0.90185412335E+02  0.91394965623E+03 -0.36286267648E+03  0.10476672681E+04  0.35000000000E+03 0.  0.
       21    1    1    2  503  501 -0.59523973098E+02  0.23105644191E+02 -0.71753300916E+02  0.96049520348E+02  0.00000000000E+00 0. -1.
<scales pt_clust_1="13000.00000" pt_clust_2="13000.00000" pt_clust_3="63.85119"></scales>
<clustering>
<clus scale="   63.851">  2  5  1 -1</clus>
<clus scale=" 2126.473">  3  4 -1 -1</clus>
<clus scale=" 1002.813">  1  3  2 -1</clus>
</clustering>
</event>
<event>
 5   1  0.3464723E-02  0.3860929E+03  0.7816531E-02  0.1048704E+00
       21   -1    0    0  504  502  0.00000000000E+00  0.00000000000E+00  0.84983190781E+03  0.84983190781E+03  0.00000000000E+00 0. -1.
       21   -1    0    0  502  503  0.00000000000E+00  0.00000000000E+00 -0.19665882112E+03  0.19665882112E+03  0.00000000000E+00 0. -1.
  1000006    1    1    2  501    0 -0.14193769058E+03 -0.40894124104E+02  0.39537245289E+03  0.54830467251E+03  0.35000000000E+03 0.  0.
 -1000006    1    1    2    0  503  0.16177213636E+03  0.64222970882E+02  0.21671704612E+03  0.44694640861E+03  0.35000000000E+03 0.  0.
       21    1    1    2  504  501 -0.19834445781E+02 -0.23328846778E+02  0.41083587669E+02  0.51239647805E+02  0.00000000000E+00 0.  1.
<scales pt_clust_1="13000.00000" pt_clust_2="13000.00000" pt_clust_3="30.62091"></scales>
<clustering>
<clus scale="   30.621">  1  5  2 -1</clus>
<clus scale="  386.093">  1  3  2 -1</clus>
<clus scale="  386.093">  1  3  2 -1</clus>
</clustering>
</event>
<event>
 6   2  0.3464723E-02  0.3636247E+03  0.7816531E-02  0.1057158E+00
       21   -1    0    0  502  503  0.00000000000E+00  0.00000000000E+00  0.82554866242E+03  0.82554866242E+03  0.00000000000E+00 0.  1.
        2   -1    0    0  504    0  0.00000000000E+00  0.00000000000E+00 -0.13876877250E+04  0.13876877250E+04  0.00000000000E+00 0.  1.
  1000006    1    1    2  501    0  0.27161642707E+02  0.38092223381E+01 -0.67082205684E+03  0.75713571898E+03  0.35000000000E+03 0.  0.
 -1000006    1    1    2    0  503 -0.94203404164E+02  0.42048093725E+02  0.72712506501E+03  0.81354359669E+03  0.35000000000E+03 0.  0.
       21    1    1    2  504  501  0.31304045774E+02 -0.97767023410E+02 -0.27838782560E+03  0.29671217634E+03  0.00000000000E+00 0.  1.
        2    1    1    2  502    0  0.35737715683E+02  0.51909707347E+02 -0.34005424515E+03  0.34584489542E+03  0.00000000000E+00 0.  1.
<scales pt_clust_1="13000.00000" pt_clust_2="13000.00000" pt_clust_3="93.06648" pt_clust_4="63.02223"></scales>
<clustering>
<clus scale="   63.022">  2  6  1 -1</clus>
<clus scale="   93.066">  2  5  1 -1</clus>
<clus scale="  363.625">  1  4  2 -1</clus>
<clus scale="  363.625">  1  3  2 -1</clus>
</clustering>
</event>
<event>
 4   0  0.3464723E-02  0.3786305E+03  0.7816531E-02  0.1051441E+00
       21   -1    0    0  501  502  0.00000000000E+00  0.00000000000E+00  0.78297064275E+03  0.78297064275E+03  0.00000000000E+00 0.  1.
       21   -1    0    0  502  503  0.00000000000E+00  0.00000000000E+00 -0.31204788273E+03  0.31204788273E+03  0.00000000000E+00 0.  1.
  1000006    1    1    2  501    0  0.98734637618E+02 -0.10541580746E+03  0.58741861889E+03  0.69887170135E+03  0.35000000000E+03 0.  0.
 -1000006    1    1    2    0  503 -0.98734637618E+02  0.10541580746E+03 -0.11649585887E+03  0.39614682412E+03  0.35000000000E+03 0.  0.
<scales pt_clust_1="13000.00000" pt_clust_2="13000.00000"></scales>
<clustering>
<clus scale="  378.630">  1  3  2 -1</clus>
<clus scale="  378.630">  1  3  2 -1</clus>
</clustering>
</event>
<event>
 4   0  0.3464723E-02  0.9876274E+03  0.7816531E-02  0.9322220E-01
       -2   -1    0    0    0  501  0.00000000000E+00  0.00000000000E+00  0.69230926501E+03  0.69230926501E+03  0.00000000000E+00 0. -1.
        2   -1    0    0  502    0  0.00000000000E+00  0.00000000000E+00 -0.14713232787E+04  0.14713232787E+04  0.00000000000E+00 0.  1.
  1000006    1    1    2  502    0 -0.42299943962E+03 -0.82096251468E+03 -0.61230185127E+03  0.11620333616E+04  0.35000000000E+03 0.  0.
 -1000006    1    1    2    0  501  0.42299943962E+03  0.82096251468E+03 -0.16671216238E+03  0.10015991821E+04  0.35000000000E+03 0.  0.
<scales pt_clust_1="13000.00000" pt_clust_2="13000.00000"></scales>
<clustering>
<clus scale=" 1925.342">  3  4 -1 -1</clus>
<clus scale="  987.627">  2  3  1 -1</clus>
</clustering>
</event>
<event>
 4   0  0.3464723E-02  0.4793235E+03  0.7816531E-02  0.1019321E+00
       21   -1    0    0  503  502  0.00000000000E+00  0.00000000000E+00  0.70831864496E+03  0.70831864496E+03  0.00000000000E+00 0. -1.
       21   -1    0    0  501  503  0.00000000000E+00  0.00000000000E+00 -0.73197375814E+03  0.73197375814E+03  0.00000000000E+00 0. -1.
  1000006    1    1    2  501    0 -0.20166018958E+03 -0.25803910261E+03 -0.54922643157E+03  0.72897234767E+03  0.35000000000E+03 0.  0.
 -1000006    1    1    2    0  502  0.20166018958E+03  0.25803910261E+03  0.52557131839E+03  0.71132005542E+03  0.35000000000E+03 0.  0.
<scales pt_clust_1="13000.00000" pt_clust_2="13000.00000"></scales>
<clustering>
<clus scale="  479.323">  2  3  1 -1</clus>
<clus scale="  479.323">  1  3  2 -1</clus>
</clustering>
</event>
<event>
 5   1  0.3464723E-02  0.3665508E+03  0.7816531E-02  0.1056020E+00
       21   -1    0    0  503  502  0.00000000000E+00  0.00000000000E+00  0.35631211384E+03  0.35631211384E+03  0.00000000000E+00 0.  1.
       21   -1    0    0  501  503  0.00000000000E+00  0.00000000000E+00 -0.10216745802E+04  0.10216745802E+04  0.00000000000E+00 0.  1.
  1000006    1    1    2  501    0  0.74964669051E+02 -0.92089932797E+02 -0.78809640938E+03  0.87045747042E+03  0.35000000000E+03 0.  0.
 -1000006    1    1    2    0  504 -0.72660536443E+02  0.25846616684E+02 -0.10682043140E+02  0.35855502673E+03  0.35000000000E+03 0.  0.
       21    1    1    2  504  502 -0.23041326084E+01  0.66243316113E+02  0.13341598619E+03  0.14897419686E+03  0.00000000000E+00 0.  1.
<scales pt_clust_1="13000.00000" pt_clust_2="13000.00000" pt_clust_3="66.28338"></scales>
<clustering>
<clus scale="   66.283">  1  5  2 -1</clus>
<clus scale="  366.551">  2  3  1 -1</clus>
<clus scale="  366.551">  1  3  2 -1</clus>
</clustering>
</event>
<event>
 5   1  0.3464723E-02  0.3565481E+03  0.7816531E-02  0.1059959E+00
        2   -1    0    0  501    0  0.00000000000E+00  0.00000000000E+00  0.43177869462E+03  0.43177869462E+03  0.00000000000E+00 0. -1.
       21   -1    0    0  502  503  0.00000000000E+00  0.00000000000E+00 -0.68641028726E+03  0.68641028726E+03  0.00000000000E+00 0. -1.
  1000006    1    1    2  501    0 -0.93190255924E+02 -0.35269239055E+02  0.90382336478E+01  0.36401927516E+03  0.35000000000E+03 0.  0.
 -1000006    1    1    2    0  503  0.41191687898E+02  0.43003775911E+02 -0.44275997225E+03  0.56752310343E+03  0.35000000000E+03 0.  0.
        2    1    1    2  502    0  0.51998568026E+02 -0.77345368556E+01  0.17909014596E+03  0.18664660329E+03  0.00000000000E+00 0. -1.
<scales pt_clust_1="13000.00000" pt_clust_2="13000.00000" pt_clust_3="52.57066"></scales>
<clustering>
<clus scale="   52.571">  1  5  2 -1</clus>
<clus scale="  356.548">  1  3  2 -1</clus>
<clus scale="  356.548">  2  3  1 -1</clus>
</clustering>
</event>
<event>
 5   1  0.3464723E-02  0.3604222E+03  0.7816531E-02  0.1058417E+00
       21   -1    0    0  502  503  0.00000000000E+00  0.00000000000E+00  0.58695645551E+03  0.58695645551E+03  0.00000000000E+00 0. -1.
        1   -1    0    0  501    0  0.00000000000E+00  0.00000000000E+00 -0.77364660804E+03  0.77364660804E+03  0.00000000000E+00 0.  1.
  1000006    1    1    2  501    0 -0.77396729208E+02 -0.15538836734E+02 -0.33456964969E+02  0.36034855022E+03  0.35000000000E+03 0.  0.
 -1000006    1    1    2    0  503  0.77563307579E+02  0.45907373992E+02  0.34585739190E+03  0.50024083120E+03  0.35000000000E+03 0.  0.
        1    1    1    2  502    0 -0.16657837094E+00 -0.30368537258E+02 -0.49909057947E+03  0.50001368213E+03  0.00000000000E+00 0.  1.
<scales pt_clust_1="13000.00000" pt_clust_2="13000.00000" pt_clust_3="30.36899"></scales>
<clustering>
<clus scale="   30.369">  2  5  1 -1</clus>
<clus scale="  360.422">  1  4  2 -1</clus>
<clus scale="  360.422">  1  3  2 -1</clus>
</clustering>
</event>
<event>
 5   1  0.3464723E-02  0.4167910E+03  0.7816531E-02  0.1038116E+00
       21   -1    0    0  502  503  0.00000000000E+00  0.00000000000E+00  0.11705438868E+03  0.11705438868E+03  0.00000000000E+00 0.  1.
        2   -1    0    0  501    0  0.00000000000E+00  0.00000000000E+00 -0.18175874844E+04  0.18175874844E+04  0.00000000000E+00 0.  1.
  1000006    1    1    2  501    0  0.14824412921E+03  0.21325025486E+03 -0.89543552447E+03  0.99586985672E+03  0.35000000000E+03 0.  0.
 -1000006    1    1    2    0  503 -0.88102218757E+02 -0.18390767137E+03 -0.60762005271E+03  0.73026444593E+03  0.35000000000E+03 0.  0.
        2    1    1    2  502    0 -0.60141910458E+02 -0.29342583494E+02 -0.19747751853E+03  0.20850757043E+03  0.00000000000E+00 0.  1.
<scales pt_clust_1="13000.00000" pt_clust_2="13000.00000" pt_clust_3="66.91813"></scales>
<clustering>
<clus scale="   66.918">  2  5  1 -1</clus>
<clus scale="  416.791">  2  3  1 -1</clus>
<clus scale="  416.791">  1  3  2 -1</clus>
</clustering>
</event>
<event>
 6   2  0.3464723E-02  0.4034501E+03  0.7816531E-02  0.1042592E+00
       21   -1    0    0  501  502  0.00000000000E+00  0.00000000000E+00  0.25061093427E+04  0.25061093427E+04  0.00000000000E+00 0.  1.
       21   -1    0    0  505  503  0.00000000000E+00  0.00000000000E+00 -0.17762264089E+03  0.17762264089E+03  0.00000000000E+00 0.  1.
  1000006    1    1    2  501    0  0.14961713281E+03 -0.14231765567E+03  0.10685875384E+04  0.11432492855E+04  0.35000000000E+03 0.  0.
 -1000006    1    1    2    0  504 -0.15135866855E+03  0.82651719223E+02  0.26770219458E+03  0.47318624052E+03  0.35000000000E+03 0.  0.
       21    1    1    2  504  503 -0.30033858902E+02  0.34467877568E+02 -0.23077964510E+02  0.51211909850E+02  0.00000000000E+00 0.  1.
       21    1    1    2  505  502  0.31775394639E+02  0.25198058878E+02  0.10152749333E+04  0.10160845477E+04  0.00000000000E+00 0.  1.
<scales pt_clust_1="13000.00000" pt_clust_2="13000.00000" pt_clust_3="45.70114" pt_clust_4="40.55389"></scales>
<clustering>
<clus scale="   40.554">  1  6  2 -1</clus>
<clus scale="   45.701">  2  5  1 -1</clus>
<clus scale="  403.450">  2  4  1 -1</clus>
<clus scale="  403.450">  1  3  2 -1</clus>
</clustering>
</event>
<event>
 6   2  0.3464723E-02  0.3881499E+03  0.7816531E-02  0.1047962E+00
       21   -1    0    0  502  503  0.00000000000E+00  0.00000000000E+00  0.64787586985E+03  0.64787586985E+03  0.00000000000E+00 0.  1.
        1   -1    0    0  501    0  0.00000000000E+00  0.00000000000E+00 -0.17355871068E+04  0.17355871068E+04  0.00000000000E+00 0. -1.
  1000006    1    1    2  501    0  0.14305138618E+03  0.12170045543E+02 -0.21479493835E+02  0.37891051418E+03  0.35000000000E+03 0.  0.
 -1000006    1    1    2    0  504 -0.18634937972E+03 -0.48958542966E+02  0.73267631756E+01  0.39959568530E+03  0.35000000000E+03 0.  0.
       21    1    1    2  504  503  0.70915728101E+00 -0.47396003015E+02  0.26190751779E+03  0.26616241635E+03  0.00000000000E+00 0.  1.
        1    1    1    2  502    0  0.42588836254E+02  0.84184500438E+02 -0.13354660241E+04  0.13387943609E+04  0.00000000000E+00 0. -1.
<scales pt_clust_1="13000.00000" pt_clust_2="13000.00000" pt_clust_3="47.40131" pt_clust_4="94.16233"></scales>
<clustering>
<clus scale="   47.401">  1  5  2 -1</clus>
<clus scale="   94.162">  2  6  1 -1</clus>
<clus scale="  388.150">  1  4  2 -1</clus>
<clus scale="  388.150">  1  3  2 -1</clus>
</clustering>
</event>
<event>
 6   2  0.3464723E-02  0.6470778E+03  0.7816531E-02  0.9812278E-01
       21   -1    0    0  504  502  0.00000000000E+00  0.00000000000E+00  0.15950300133E+04  0.15950300133E+04  0.00000000000E+00 0.  1.
       21   -1    0    0  505  503  0.00000000000E+00  0.00000000000E+00 -0.55843232249E+03  0.55843232249E+03  0.00000000000E+00 0. -1.
  1000006    1    1    2  501    0  0.54994145999E+03  0.53993575540E+00  0.60135111728E+03  0.88688165344E+03  0.35000000000E+03 0.  0.
 -1000006    1    1    2    0  503 -0.54169534264E+03 -0.29193858632E+02 -0.14798029176E+03  0.66233246362E+03  0.35000000000E+03 0.  0.
       21    1    1    2  504  501 -0.43485421012E+02  0.36295131895E+02  0.55647403261E+03  0.55934932503E+03  0.00000000000E+00 0.  1.
       21    1    1    2  505  502  0.35239303658E+02 -0.76412090179E+01  0.26752832641E+02  0.44898893660E+02  0.00000000000E+00 0. -1.
<scales pt_clust_1="13000.00000" pt_clust_2="13000.00000" pt_clust_3="45.60346" pt_clust_4="36.05824"></scales>
<clustering>
<clus scale="   36.058">  1  6  2 -1</clus>
<clus scale="   45.603">  1  5  2 -1</clus>
<clus scale="  647.078">  2  4  1 -1</clus>
<clus scale="  647.078">  1  3  2 -1</clus>
</clustering>
</event>
<event>
 5   1  0.3464723E-02  0.3913666E+03  0.7816531E-02  0.1046811E+00
       -4   -1    0    0    0  501  0.00000000000E+00  0.00000000000E+00  0.25801575233E+03  0.25801575233E+03  0.00000000000E+00 0.  1.
       21   -1    0    0  502  503  0.00000000000E+00  0.00000000000E+00 -0.99350417510E+03  0.99350417510E+03  0.00000000000E+00 0.  1.
  1000006    1    1    2  502    0 -0.16484172460E+03 -0.74507388623E+02  0.79945824715E+01  0.39406605852E+03  0.35000000000E+03 0.  0.
 -1000006    1    1    2    0  501  0.12668128015E+03  0.89335888741E+02 -0.69933734607E+03  0.79724636804E+03  0.35000000000E+03 0.  0.
       -4    1    1    2    0  503  0.38160444455E+02 -0.14828500117E+02 -0.44145659174E+02  0.60207500867E+02  0.00000000000E+00 0.  1.
<scales pt_clust_1="13000.00000" pt_clust_2="13000.00000" pt_clust_3="40.94025"></scales>
<clustering>
<clus scale="   40.940">  2  5  1 -1</clus>
<clus scale="  756.369">  3  4 -1 -1</clus>
<clus scale="  391.367">  2  3  1 -1</clus>
</clustering>
</event>
<event>
 5   1  0.3464723E-02  0.4850017E+03  0.7816531E-02  0.1017770E+00
       21   -1    0    0  501  502  0.00000000000E+00  0.00000000000E+00  0.74049482698E+03  0.74049482698E+03  0.00000000000E+00 0.  1.
       21   -1    0    0  502  503  0.00000000000E+00  0.00000000000E+00 -0.44546892136E+03  0.44546892136E+03  0.00000000000E+00 0.  1.
  1000006    1    1    2  501    0 -0.21067671092E+03  0.25957021003E+03  0.24504926011E+03  0.54250392657E+03  0.35000000000E+03 0.  0.
 -1000006    1    1    2    0  504  0.24624808825E+03 -0.23296758418E+03  0.16954725647E+03  0.51590530955E+03  0.35000000000E+03 0.  0.
       21    1    1    2  504  503 -0.35571377330E+02 -0.26602625852E+02 -0.11957061095E+03  0.12755451223E+03  0.00000000000E+00 0.  1.
<scales pt_clust_1="13000.00000" pt_clust_2="13000.00000" pt_clust_3="44.41872"></scales>
<clustering>
<clus scale="   44.419">  2  5  1 -1</clus>
<clus scale="  485.002">  1  3  2 -1</clus>
<clus scale="  485.002">  1  3  2 -1</clus>
</clustering>
</event>
<event>
 6   2  0.3464723E-02  0.3505495E+03  0.7816531E-02  0.1062390E+00
       21   -1    0    0  504  502  0.00000000000E+00  0.00000000000E+00  0.11471935426E+04  0.11471935426E+04  0.00000000000E+00 0. -1.
       21   -1    0    0  501  503  0.00000000000E+00  0.00000000000E+00 -0.30743641073E+03  0.30743641073E+03  0.00000000000E+00 0. -1.
  1000006    1    1    2  501    0 -0.57590339512E+01  0.43040167901E+02 -0.63274037474E+01  0.35274021399E+03  0.35000000000E+03 0.  0.
 -1000006    1    1    2    0  505  0.33167943289E+02  0.38328673658E+02  0.12927471337E+03  0.37653837946E+03  0.35000000000E+03 0.  0.
       21    1    1    2  504  503 -0.20649877511E+02 -0.30721500961E+02  0.54105244383E+03  0.54231722731E+03  0.00000000000E+00 0. -1.
       21    1    1    2  505  502 -0.67590318267E+01 -0.50647340597E+02  0.17575737839E+03  0.18303413255E+03  0.00000000000E+00 0.  1.
<scales pt_clust_1="13000.00000" pt_clust_2="13000.00000" pt_clust_3="37.01659" pt_clust_4="61.12115"></scales>
<clustering>
<clus scale="   37.017">  1  5  2 -1</clus>
<clus scale="   61.121">  1  6  2 -1</clus>
<clus scale="  350.549">  2  3  1 -1</clus>
<clus scale="  350.549">  1  3  2 -1</clus>
</clustering>
</event>
<event>
 4   0  0.3464723E-02  0.3837087E+03  0.7816531E-02  0.1049571E+00
       21   -1    0    0  503  502  0.00000000000E+00  0.00000000000E+00  0.12214513113E+03  0.12214513113E+03  0.00000000000E+00 0.  1.
       21   -1    0    0  501  503  0.00000000000E+00  0.00000000000E+00 -0.15736400853E+04  0.15736400853E+04  0.00000000000E+00 0.  1.
  1000006    1    1    2  501    0 -0.14421593026E+03 -0.62722528271E+02 -0.11359141697E+04  0.11989717890E+04  0.35000000000E+03 0.  0.
 -1000006    1    1    2    0  502  0.14421593026E+03  0.62722528271E+02 -0.31558078455E+03  0.49681342742E+03  0.35000000000E+03 0.  0.
<scales pt_clust_1="13000.00000" pt_clust_2="13000.00000"></scales>
<clustering>
<clus scale="  383.709">  2  3  1 -1</clus>
<clus scale="  383.709">  1  3  2 -1</clus>
</clustering>
</event>
<event>
 5   1  0.3464723E-02  0.3597804E+03  0.7816531E-02  0.1058671E+00
       21   -1    0    0  503  502  0.00000000000E+00  0.00000000000E+00  0.57151268381E+03  0.57151268381E+03  0.00000000000E+00 0.  1.
       21   -1    0    0  501  503  0.00000000000E+00  0.00000000000E+00 -0.33213262779E+03  0.33213262779E+03  0.00000000000E+00 0.  1.
  1000006    1    1    2  501    0 -0.40652775420E+02 -0.51518191146E+02 -0.65780934132E+02  0.36212415476E+03  0.35000000000E+03 0.  0.
 -1000006    1    1    2    0  504  0.71166034184E+02  0.96445471704E+02  0.19384386200E+03  0.41766227537E+03  0.35000000000E+03 0.  0.
       21    1    1    2  504  502 -0.30513258763E+02 -0.44927280558E+02  0.11131712815E+03  0.12385888147E+03  0.00000000000E+00 0.  1.
<scales pt_clust_1="13000.00000" pt_clust_2="13000.00000" pt_clust_3="54.30948"></scales>
<clustering>
<clus scale="   54.309">  1  5  2 -1</clus>
<clus scale="  359.780">  2  3  1 -1</clus>
<clus scale="  359.780">  1  3  2 -1</clus>
</clustering>
</event>
<event>
 4   0  0.3464723E-02  0.3736562E+03  0.7816531E-02  0.1053304E+00
       21   -1    0    0  503  502  0.00000000000E+00  0.00000000000E+00  0.41758514735E+03  0.41758514735E+03  0.00000000000E+00 0.  1.
       21   -1    0    0  501  503  0.00000000000E+00  0.00000000000E+00 -0.43021450417E+03  0.43021450417E+03  0.00000000000E+00 0.  1.
  1000006    1    1    2  501    0  0.41673077350E+02  0.12402537944E+03 -0.20641748326E+03  0.42688068300E+03  0.35000000000E+03 0.  0.
 -1000006    1    1    2    0  502 -0.41673077350E+02 -0.12402537944E+03  0.19378812644E+03  0.42091896853E+03  0.35000000000E+03 0.  0.
<scales pt_clust_1="13000.00000" pt_clust_2="13000.00000"></scales>
<clustering>
<clus scale="  373.656">  2  3  1 -1</clus>
<clus scale="  373.656">  1  3  2 -1</clus>
</clustering>
</event>
<event>
 6   2  0.3464723E-02  0.4443960E+03  0.7816531E-02  0.1029406E+00
       21   -1    0    0  501  503  0.00000000000E+00  0.00000000000E+00  0.32127351102E+03  0.32127351102E+03  0.00000000000E+00 0. -1.
        2   -1    0    0  504    0  0.00000000000E+00  0.00000000000E+00 -0.10300629255E+04  0.10300629255E+04  0.00000000000E+00 0. -1.
  1000006    1    1    2  501    0 -0.86540826098E+02  0.29209625352E+03 -0.12370212745E+03  0.48022052459E+03  0.35000000000E+03 0.  0.
 -1000006    1    1    2    0  502  0.91964736415E+02 -0.21684803161E+03 -0.26882923790E+03  0.50024967837E+03  0.35000000000E+03 0.  0.
       21    1    1    2  504  503  0.46266184017E+02  0.24072504608E+02 -0.21044552778E+03  0.21681182031E+03  0.00000000000E+00 0. -1.
        2    1    1    2  502    0 -0.51690094335E+02 -0.99320726519E+02 -0.10581252132E+03  0.15405441323E+03  0.00000000000E+00 0. -1.
<scales pt_clust_1="13000.00000" pt_clust_2="13000.00000" pt_clust_3="52.15405" pt_clust_4="105.27655"></scales>
<clustering>
<clus scale="   52.154">  2  5  1 -1</clus>
<clus scale="  105.277">  2  6  1 -1</clus>
<clus scale="  444.396">  1  3  2 -1</clus>
<clus scale="  444.396">  1  3  2 -1</clus>
</clustering>
</event>
<event>
 5   1  0.3464723E-02  0.3562797E+03  0.7816531E-02  0.1060067E+00
       21   -1    0    0  501  502  0.00000000000E+00  0.00000000000E+00  0.27095477045E+03  0.27095477045E+03  0.00000000000E+00 0.  1.
       21   -1    0    0  504  503  0.00000000000E+00  0.00000000000E+00 -0.21114784737E+04  0.21114784737E+04  0.00000000000E+00 0. -1.
  1000006    1    1    2  501    0  0.46975306601E+01  0.51232464605E+02 -0.40241118883E+02  0.35604238494E+03  0.35000000000E+03 0.  0.
 -1000006    1    1    2    0  503 -0.68719729200E+02 -0.71097279560E+02 -0.18195461757E+03  0.40667518635E+03  0.35000000000E+03 0.  0.
       21    1    1    2  504  502  0.64022198540E+02  0.19864814956E+02 -0.16183279668E+04  0.16197156729E+04  0.00000000000E+00 0. -1.
<scales pt_clust_1="13000.00000" pt_clust_2="13000.00000" pt_clust_3="67.03322"></scales>
<clustering>
<clus scale="   67.033">  2  5  1 -1</clus>
<clus scale="  356.280">  1  3  2 -1</clus>
<clus scale="  356.280">  1  3  2 -1</clus>
</clustering>
</event>
<event>
 5   1  0.3464723E-02  0.3983258E+03  0.7816531E-02  0.1044361E+00
       21   -1    0    0  501  502  0.00000000000E+00  0.00000000000E+00  0.13899822399E+03  0.13899822399E+03  0.00000000000E+00 0. -1.
       21   -1    0    0  502  503  0.00000000000E+00  0.00000000000E+00 -0.25641524065E+04  0.25641524065E+04  0.00000000000E+00 0. -1.
  1000006    1    1    2  501    0  0.20996947814E+03  0.11239363342E+03 -0.52274994637E+03  0.67267155211E+03  0.35000000000E+03 0.  0.
 -1000006    1    1    2    0  504 -0.15743310152E+03  0.17621068053E+02 -0.55038568963E+03  0.67120793413E+03  0.35000000000E+03 0.  0.
       21    1    1    2  504  503 -0.52536376621E+02 -0.13001470147E+03 -0.13520185465E+04  0.13592711443E+04  0.00000000000E+00 0. -1.
<scales pt_clust_1="13000.00000" pt_clust_2="13000.00000" pt_clust_3="140.22801"></scales>
<clustering>
<clus scale="  140.228">  2  5  1 -1</clus>
<clus scale="  398.326">  1  3  2 -1</clus>
<clus scale="  398.326">  1  3  2 -1</clus>
</clustering>
</event>
<event>
 6   2  0.3464723E-02  0.3879330E+03  0.7816531E-02  0.1048040E+00
       21   -1    0    0  502  503  0.00000000000E+00  0.00000000000E+00  0.53494415171E+03  0.53494415171E+03  0.00000000000E+00 0.  1.
        1   -1    0    0  504    0  0.00000000000E+00  0.00000000000E+00 -0.60363764692E+03  0.60363764692E+03  0.00000000000E+00 0. -1.
  1000006    1    1    2  501    0 -0.12726922304E+02  0.17340809407E+03 -0.81811475097E+02  0.39928117799E+03  0.35000000000E+03 0.  0.
 -1000006    1    1    2    0  503  0.10646941389E+02 -0.16416357217E+03  0.26170906513E+03  0.46696324327E+03  0.35000000000E+03 0.  0.
       21    1    1    2  504  501  0.20928576182E+02 -0.34471254862E+02 -0.27025972707E+02  0.48545606531E+02  0.00000000000E+00 0.  1.
        1    1    1    2  502    0 -0.18848595267E+02  0.25226732964E+02 -0.22156511255E+03  0.22379177084E+03  0.00000000000E+00 0. -1.
<scales pt_clust_1="13000.00000" pt_clust_2="13000.00000" pt_clust_3="37.21925" pt_clust_4="31.49060"></scales>
<clustering>
<clus scale="   31.491">  2  6  1 -1</clus>
<clus scale="   37.219">  2  5  1 -1</clus>
<clus scale="  387.933">  1  4  2 -1</clus>
<clus scale="  387.933">  1  3  2 -1</clus>
</clustering>
</event>
<event>
 4   0  0.3464723E-02  0.3624460E+03  0.7816531E-02  0.1057620E+00
       21   -1    0    0  501  502  0.00000000000E+00  0.00000000000E+00  0.89727149039E+03  0.89727149039E+03  0.00000000000E+00 0. -1.
       21   -1    0    0  502  503  0.00000000000E+00  0.00000000000E+00 -0.14698866481E+03  0.14698866481E+03  0.00000000000E+00 0. -1.
  1000006    1    1    2  501    0 -0.32866792923E+02 -0.88243224951E+02  0.40797834653E+03  0.54572284546E+03  0.35000000000E+03 0.  0.
 -1000006    1    1    2    0  503  0.32866792923E+02  0.88243224951E+02  0.34230447905E+03  0.49853730974E+03  0.35000000000E+03 0.  0.
<scales pt_clust_1="13000.00000" pt_clust_2="13000.00000"></scales>
<clustering>
<clus scale="  362.446">  1  3  2 -1</clus>
<clus scale="  362.446">  1  3  2 -1</clus>
</clustering>
</event>
<event>
 6   2  0.3464723E-02  0.3939521E+03  0.7816531E-02  0.1045894E+00
        2   -1    0    0  504    0  0.00000000000E+00  0.00000000000E+00  0.74052796122E+03  0.74052796122E+03  0.00000000000E+00 0.  1.
       21   -1    0    0  501  503  0.00000000000E+00  0.00000000000E+00 -0.77441175899E+03  0.77441175899E+03  0.00000000000E+00 0.  1.
  1000006    1    1    2  501    0  0.15844023710E+02 -0.20201462727E+03 -0.33771933259E+03  0.52689210501E+03  0.35000000000E+03 0.  0.
 -1000006    1    1    2    0  502 -0.90704410972E+02  0.13989584325E+03 -0.21601599229E+03  0.44380293606E+03  0.35000000000E+03 0.  0.
       21    1    1    2  504  503 -0.36187599111E+02  0.21108438360E+02  0.16156898145E+03  0.16691208544E+03  0.00000000000E+00 0. -1.
        2    1    1    2  502    0  0.11104798637E+03  0.41010345657E+02  0.35828254567E+03  0.37733259369E+03  0.00000000000E+00 0.  1.
<scales pt_clust_1="13000.00000" pt_clust_2="13000.00000" pt_clust_3="41.89402" pt_clust_4="103.45943"></scales>
<clustering>
<clus scale="   41.894">  1  5  2 -1</clus>
<clus scale="  103.459">  1  6  2 -1</clus>
<clus scale="  393.952">  1  4  2 -1</clus>
<clus scale="  393.952">  2  3  1 -1</clus>
</clustering>
</event>
<event>
 5   1  0.3464723E-02  0.5062681E+03  0.7816531E-02  0.1012156E+00
       21   -1    0    0  504  502  0.00000000000E+00  0.00000000000E+00  0.99658023681E+03  0.99658023681E+03  0.00000000000E+00 0.  1.
       21   -1    0    0  501  503  0.00000000000E+00  0.00000000000E+00 -0.80939908180E+03  0.80939908180E+03  0.00000000000E+00 0. -1.
  1000006    1    1    2  501    0  0.16164813938E+03 -0.32075719574E+03 -0.34208708338E+03  0.60707402531E+03  0.35000000000E+03 0.  0.
 -1000006    1    1    2    0  502 -0.21780851622E+03  0.30909217740E+03 -0.13462136769E+03  0.53254242695E+03  0.35000000000E+03 0.  0.
       21    1    1    2  504  503  0.56160376842E+02  0.11665018348E+02  0.66388960608E+03  0.66636286635E+03  0.00000000000E+00 0.  1.
<scales pt_clust_1="13000.00000" pt_clust_2="13000.00000" pt_clust_3="57.35905"></scales>
<clustering>
<clus scale="   57.359">  1  5  2 -1</clus>
<clus scale="  506.268">  1  4  2 -1</clus>
<clus scale="  506.268">  1  3  2 -1</clus>
</clustering>
</event>
<event>
 4   0  0.3464723E-02  0.5275191E+03  0.7816531E-02  0.1006836E+00
        1   -1    0    0  502    0  0.00000000000E+00  0.00000000000E+00  0.13197301413E+04  0.13197301413E+04  0.00000000000E+00 0.  1.
       -1   -1    0    0    0  501  0.00000000000E+00  0.00000000000E+00 -0.21511010477E+03  0.21511010477E+03  0.00000000000E+00 0. -1.
  1000006    1    1    2  502    0 -0.14589647489E+03  0.36672965886E+03  0.44442152832E+03  0.68977309233E+03  0.35000000000E+03 0.  0.
 -1000006    1    1    2    0  501  0.14589647489E+03 -0.36672965886E+03  0.66019850818E+03  0.84506715371E+03  0.35000000000E+03 0.  0.
<scales pt_clust_1="13000.00000" pt_clust_2="13000.00000"></scales>
<clustering>
<clus scale="  876.384">  3  4 -1 -1</clus>
<clus scale="  527.519">  1  3  2 -1</clus>
</clustering>
</event>
<event>
 5   1  0.3464723E-02  0.6334297E+03  0.7816531E-02  0.9838379E-01
       21   -1    0    0  504  502  0.00000000000E+00  0.00000000000E+00  0.14064358925E+04  0.14064358925E+04  0.00000000000E+00 0.  1.
       21   -1    0    0  501  503  0.00000000000E+00  0.00000000000E+00 -0.41125531149E+03  0.41125531149E+03  0.00000000000E+00 0. -1.
  1000006    1    1    2  501    0 -0.45553376660E+03  0.25062427647E+03  0.56233708233E+02  0.62927400265E+03  0.35000000000E+03 0.  0.
 -1000006    1    1    2    0  502  0.49350624359E+03 -0.23970082340E+03  0.73940030356E+03  0.98499629751E+03  0.35000000000E+03 0.  0.
       21    1    1    2  504  503 -0.37972476987E+02 -0.10923453066E+02  0.19954656923E+03  0.20342090385E+03  0.00000000000E+00 0. -1.
<scales pt_clust_1="13000.00000" pt_clust_2="13000.00000" pt_clust_3="39.51241"></scales>
<clustering>
<clus scale="   39.512">  1  5  2 -1</clus>
<clus scale="  633.430">  1  4  2 -1</clus>
<clus scale="  633.430">  1  3  2 -1</clus>
</clustering>
</event>
<event>
 5   1  0.3464723E-02  0.3509282E+03  0.7816531E-02  0.1062235E+00
       21   -1    0    0  504  502  0.00000000000E+00  0.00000000000E+00  0.26602857731E+03  0.26602857731E+03  0.00000000000E+00 0.  1.
       21   -1    0    0  501  503  0.00000000000E+00  0.00000000000E+00 -0.67189379239E+03  0.67189379239E+03  0.00000000000E+00 0.  1.
  1000006    1    1    2  501    0  0.70359115622E+02 -0.58085419729E+02 -0.16808077131E+03  0.39884265923E+03  0.35000000000E+03 0.  0.
 -1000006    1    1    2    0  502  0.22030784719E+02 -0.32886561714E+02 -0.15211834612E+03  0.38367547829E+03  0.35000000000E+03 0.  0.
       21    1    1    2  504  503 -0.92389900341E+02  0.90971981444E+02 -0.85666097655E+02  0.15540423218E+03  0.00000000000E+00 0.  1.
<scales pt_clust_1="13000.00000" pt_clust_2="13000.00000" pt_clust_3="129.66031"></scales>
<clustering>
<clus scale="  129.660">  2  5  1 -1</clus>
<clus scale="  350.928">  2  3  1 -1</clus>
<clus scale="  350.928">  1  3  2 -1</clus>
</clustering>
</event>
<event>
 6   2  0.3464723E-02  0.3868167E+03  0.7816531E-02  0.1048443E+00
       21   -1    0    0  501  502  0.00000000000E+00  0.00000000000E+00  0.36509528250E+03  0.36509528250E+03  0.00000000000E+00 0.  1.
       21   -1    0    0  502  503  0.00000000000E+00  0.00000000000E+00 -0.21672817229E+04  0.21672817229E+04  0.00000000000E+00 0.  1.
  1000006    1    1    2  501    0 -0.26063780969E+03 -0.60336128763E+02  0.45173055460E+02  0.44284661138E+03  0.35000000000E+03 0.  0.
 -1000006    1    1    2    0  505  0.21077159459E+02 -0.31902293787E+02 -0.18261263016E+03  0.39662245990E+03  0.35000000000E+03 0.  0.
       21    1    1    2  504  503 -0.17789845537E+02  0.25303057081E+02 -0.36080917117E+03  0.36213254660E+03  0.00000000000E+00 0.  1.
       21    1    1    2  505  504  0.25735049576E+03  0.66935365468E+02 -0.13039376946E+04  0.13307753875E+04  0.00000000000E+00 0.  1.
<scales pt_clust_1="13000.00000" pt_clust_2="13000.00000" pt_clust_3="30.93094" pt_clust_4="258.86319"></scales>
<clustering>
<clus scale="   30.931">  2  5  1 -1</clus>
<clus scale="  258.863">  2  6  1 -1</clus>
<clus scale="  386.817">  1  3  2 -1</clus>
<clus scale="  386.817">  1  3  2 -1</clus>
</clustering>
</event>
<event>
 6   2  0.3464723E-02  0.4701208E+03  0.7816531E-02  0.1021886E+00
       21   -1    0    0  504  503  0.00000000000E+00  0.00000000000E+00  0.44953358747E+03  0.44953358747E+03  0.00000000000E+00 0.  1.
        2   -1    0    0  501    0  0.00000000000E+00  0.00000000000E+00 -0.82193554984E+03  0.82193554984E+03  0.00000000000E+00 0.  1.
  1000006    1    1    2  501    0 -0.21106179291E+03 -0.19893631294E+03 -0.39927833895E+03  0.60501729643E+03  0.35000000000E+03 0.  0.
 -1000006    1    1    2    0  503  0.30837709131E+03  0.20727463905E+03 -0.41672704813E+02  0.51214824100E+03  0.35000000000E+03 0.  0.
       21    1    1    2  504  502 -0.15850912494E+02 -0.29126452340E+02  0.61579573565E+02  0.69940299779E+02  0.00000000000E+00 0.  1.
        2    1    1    2  502    0 -0.81464385905E+02  0.20788126226E+02  0.69695078361E+01  0.84363300092E+02  0.00000000000E+00 0.  1.
<scales pt_clust_1="13000.00000" pt_clust_2="13000.00000" pt_clust_3="33.16024" pt_clust_4="85.13150"></scales>
<clustering>
<clus scale="   33.160">  1  5  2 -1</clus>
<clus scale="   85.132">  1  6  2 -1</clus>
<clus scale="  822.546">  3  4 -1 -1</clus>
<clus scale="  470.121">  1  3  2 -1</clus>
</clustering>
</event>
<event>
 6   2  0.3464723E-02  0.7542625E+03  0.7816531E-02  0.9628687E-01
       21   -1    0    0  501  503  0.00000000000E+00  0.00000000000E+00  0.13181915080E+04  0.13181915080E+04  0.00000000000E+00 0.  1.
        1   -1    0    0  503    0  0.00000000000E+00  0.00000000000E+00 -0.94742178538E+03  0.94742178538E+03  0.00000000000E+00 0. -1.
  1000006    1    1    2  501    0  0.52340522596E+03 -0.19906186381E+03  0.18046813507E+03  0.68457826723E+03  0.35000000000E+03 0.  0.
 -1000006    1    1    2    0  504 -0.49982727843E+03  0.74536290699E+03  0.30999288517E+03  0.10119232976E+04  0.35000000000E+03 0.  0.
       21    1    1    2  504  502 -0.53854431347E+02 -0.44510574625E+03 -0.75736053099E+02  0.45470361211E+03  0.00000000000E+00 0. -1.
        1    1    1    2  502    0  0.30276483811E+02 -0.10119529693E+03 -0.43955244505E+02  0.11440811646E+03  0.00000000000E+00 0. -1.
<scales pt_clust_1="13000.00000" pt_clust_2="13000.00000" pt_clust_3="49.88152" pt_clust_4="556.38310"></scales>
<clustering>
<clus scale="   49.882">  5  6 -1 -1</clus>
<clus scale="  556.383">  2  5  1 -1</clus>
<clus scale="  754.263">  2  4  1 -1</clus>
<clus scale="  754.263">  1  3  2 -1</clus>
</clustering>
</event>
<event>
 4   0  0.3464723E-02  0.6707565E+03  0.7816531E-02  0.9768592E-01
        2   -1    0    0  502    0  0.00000000000E+00  0.00000000000E+00  0.13528536495E+04  0.13528536495E+04  0.00000000000E+00 0. -1.
       -2   -1    0    0    0  501  0.00000000000E+00  0.00000000000E+00 -0.33268763978E+03  0.33268763978E+03  0.00000000000E+00 0.  1.
  1000006    1    1    2  502    0 -0.25476320276E+03  0.51235731387E+03  0.52614008293E+03  0.85248911630E+03  0.35000000000E+03 0.  0.
 -1000006    1    1    2    0  501  0.25476320276E+03 -0.51235731387E+03  0.49402592678E+03  0.83305217297E+03  0.35000000000E+03 0.  0.
<scales pt_clust_1="13000.00000" pt_clust_2="13000.00000"></scales>
<clustering>
<clus scale=" 1197.001">  3  4 -1 -1</clus>
<clus scale="  670.757">  1  3  2 -1</clus>
</clustering>
</event>
<event>
 6   2  0.3464723E-02  0.4933161E+03  0.7816531E-02  0.1015538E+00
        2   -1    0    0  503    0  0.00000000000E+00  0.00000000000E+00  0.10554220229E+04  0.10554220229E+04  0.00000000000E+00 0.  1.
        2   -1    0    0  501    0  0.00000000000E+00  0.00000000000E+00 -0.96129881060E+03  0.96129881060E+03  0.00000000000E+00 0.  1.
  1000006    1    1    2  501    0 -0.16291164981E+03 -0.34721923580E+03 -0.40596205395E+03  0.65909528340E+03  0.35000000000E+03 0.  0.
 -1000006    1    1    2    0  502  0.19230824100E+03  0.24909092558E+03 -0.29155675974E+03  0.55365521122E+03  0.35000000000E+03 0.  0.
        2    1    1    2  502    0  0.22484512637E+02  0.26667960954E+02  0.85706159133E+02  0.92532584333E+02  0.00000000000E+00 0.  1.
        2    1    1    2  503    0 -0.51881103823E+02  0.71460349263E+02  0.70593586686E+03  0.71143775453E+03  0.00000000000E+00 0.  1.
<scales pt_clust_1="13000.00000" pt_clust_2="13000.00000" pt_clust_3="34.88171" pt_clust_4="97.65712"></scales>
<clustering>
<clus scale="   34.882">  1  5  2 -1</clus>
<clus scale="   97.657">  1  6  2 -1</clus>
<clus scale="  778.613">  3  4 -1 -1</clus>
<clus scale="  493.316">  1  3  2 -1</clus>
</clustering>
</event>
<event>
 5   1  0.3464723E-02  0.4005810E+03  0.7816531E-02  0.1043579E+00
       21   -1    0    0  504  502  0.00000000000E+00  0.00000000000E+00  0.70295698830E+03  0.70295698830E+03  0.00000000000E+00 0.  1.
       21   -1    0    0  501  503  0.00000000000E+00  0.00000000000E+00 -0.36836834319E+03  0.36836834319E+03  0.00000000000E+00 0.  1.
  1000006    1    1    2  501    0  0.69229439417E+02 -0.24094228730E+03  0.11068405665E+03  0.44451868519E+03  0.35000000000E+03 0.  0.
 -1000006    1    1    2    0  502 -0.12950505662E+03  0.11574888693E+03  0.27603861766E+03  0.47840012851E+03  0.35000000000E+03 0.  0.
       21    1    1    2  504  503  0.60275617203E+02  0.12519340037E+03 -0.52134029199E+02  0.14840651780E+03  0.00000000000E+00 0. -1.
<scales pt_clust_1="13000.00000" pt_clust_2="13000.00000" pt_clust_3="138.94797"></scales>
<clustering>
<clus scale="  138.948">  2  5  1 -1</clus>
<clus scale="  400.581">  2  3  1 -1</clus>
<clus scale="  400.581">  1  3  2 -1</clus>
</clustering>
</event>
<event>
 5   1  0.3464723E-02  0.4030591E+03  0.7816531E-02  0.1042726E+00
       21   -1    0    0  501  502  0.00000000000E+00  0.00000000000E+00  0.10755974935E+03  0.10755974935E+03  0.00000000000E+00 0.  1.
       21   -1    0    0  504  503  0.00000000000E+00  0.00000000000E+00 -0.21920920287E+04  0.21920920287E+04  0.00000000000E+00 0.  1.
  1000006    1    1    2  501    0 -0.15664275103E+03 -0.14792922056E+03 -0.51077784036E+03  0.65560201948E+03  0.35000000000E+03 0.  0.
 -1000006    1    1    2    0  503  0.15750538528E+03  0.11475676039E+03 -0.15553367400E+04  0.16060975796E+04  0.35000000000E+03 0.  0.
       21    1    1    2  504  502 -0.86263424962E+00  0.33172460169E+02 -0.18417698995E+02  0.37952178959E+02  0.00000000000E+00 0.  1.
<scales pt_clust_1="13000.00000" pt_clust_2="13000.00000" pt_clust_3="33.18367"></scales>
<clustering>
<clus scale="   33.184">  1  5  2 -1</clus>
<clus scale="  403.059">  2  4  1 -1</clus>
<clus scale="  403.059">  1  3  2 -1</clus>
</clustering>
</event>
<event>
 5   1  0.3464723E-02  0.3726380E+03  0.7816531E-02  0.1053689E+00
       21   -1    0    0  501  502  0.00000000000E+00  0.00000000000E+00  0.90980701549E+03  0.90980701549E+03  0.00000000000E+00 0. -1.
       21   -1    0    0  504  503  0.00000000000E+00  0.00000000000E+00 -0.29833674276E+03  0.29833674276E+03  0.00000000000E+00 0.  1.
  1000006    1    1    2  501    0 -0.76559849048E+01  0.13459983420E+03  0.49664311848E+03  0.62235851131E+03  0.35000000000E+03 0.  0.
 -1000006    1    1    2    0  503  0.46657440005E+02 -0.11207955448E+03  0.24759922317E+03  0.44558289751E+03  0.35000000000E+03 0.  0.
       21    1    1    2  504  502 -0.39001455100E+02 -0.22520279722E+02 -0.13277206892E+03  0.14020234943E+03  0.00000000000E+00 0.  1.
<scales pt_clust_1="13000.00000" pt_clust_2="13000.00000" pt_clust_3="45.03639"></scales>
<clustering>
<clus scale="   45.036">  2  5  1 -1</clus>
<clus scale="  372.638">  1  3  2 -1</clus>
<clus scale="  372.638">  1  3  2 -1</clus>
</clustering>
</event>
<event>
 4   0  0.3464723E-02  0.5144585E+03  0.7816531E-02  0.1010072E+00
       21   -1    0    0  503  502  0.00000000000E+00  0.00000000000E+00  0.17576051337E+04  0.17576051337E+04  0.00000000000E+00 0.  1.
       21   -1    0    0  501  503  0.00000000000E+00  0.00000000000E+00 -0.15105864961E+03  0.15105864961E+03  0.00000000000E+00 0. -1.
  1000006    1    1    2  501    0  0.25892613955E+02  0.37616108559E+03  0.74979037150E+03  0.90931468203E+03  0.35000000000E+03 0.  0.
 -1000006    1    1    2    0  502 -0.25892613955E+02 -0.37616108559E+03  0.85675611261E+03  0.99934910130E+03  0.35000000000E+03 0.  0.
<scales pt_clust_1="13000.00000" pt_clust_2="13000.00000"></scales>
<clustering>
<clus scale="  514.459">  2  3  1 -1</clus>
<clus scale="  514.459">  1  3  2 -1</clus>
</clustering>
</event>
<event>
 5   1  0.3464723E-02  0.3735897E+03  0.7816531E-02  0.1053329E+00
        2   -1    0    0  503    0  0.00000000000E+00  0.00000000000E+00  0.25280931925E+04  0.25280931925E+04  0.00000000000E+00 0. -1.
       21   -1    0    0  501  503  0.00000000000E+00  0.00000000000E+00 -0.61454743371E+03  0.61454743371E+03  0.00000000000E+00 0.  1.
  1000006    1    1    2  501    0  0.82068239502E+02  0.11222682282E+03 -0.40068823327E+03  0.54989191299E+03  0.35000000000E+03 0.  0.
 -1000006    1    1    2    0  502  0.44367840605E+02 -0.14242430345E+03  0.12618823887E+03  0.40084493152E+03  0.35000000000E+03 0.  0.
        2    1    1    2  502    0 -0.12643608011E+03  0.30197480629E+02  0.21880457532E+04  0.21919037817E+04  0.00000000000E+00 0. -1.
<scales pt_clust_1="13000.00000" pt_clust_2="13000.00000" pt_clust_3="129.99219"></scales>
<clustering>
<clus scale="  129.992">  1  5  2 -1</clus>
<clus scale="  373.590">  1  4  2 -1</clus>
<clus scale="  373.590">  2  3  1 -1</clus>
</clustering>
</event>
<event>
 5   1  0.3464723E-02  0.3752362E+03  0.7816531E-02  0.1052709E+00
       21   -1    0    0  501  503  0.00000000000E+00  0.00000000000E+00  0.17283544680E+03  0.17283544680E+03  0.00000000000E+00 0.  1.
        2   -1    0    0  503    0  0.00000000000E+00  0.00000000000E+00 -0.10916415138E+04  0.10916415138E+04  0.00000000000E+00 0.  1.
  1000006    1    1    2  501    0  0.13713132579E+03  0.35884145455E+02 -0.30295539261E+03  0.48412254887E+03  0.35000000000E+03 0.  0.
 -1000006    1    1    2    0  502 -0.12972956223E+03 -0.55793279799E+01 -0.34692429095E+03  0.50962471670E+03  0.35000000000E+03 0.  0.
        2    1    1    2  502    0 -0.74017635557E+01 -0.30304817475E+02 -0.26892638341E+03  0.27072969501E+03  0.00000000000E+00 0.  1.
<scales pt_clust_1="13000.00000" pt_clust_2="13000.00000" pt_clust_3="31.19564"></scales>
<clustering>
<clus scale="   31.196">  2  5  1 -1</clus>
<clus scale="  375.236">  1  3  2 -1</clus>
<clus scale="  375.236">  1  3  2 -1</clus>
</clustering>
</event>
<event>
 6   2  0.3464723E-02  0.3718187E+03  0.7816531E-02  0.1054000E+00
       21   -1    0    0  501  502  0.00000000000E+00  0.00000000000E+00  0.16580806762E+03  0.16580806762E+03  0.00000000000E+00 0.  1.
       21   -1    0    0  505  503  0.00000000000E+00  0.00000000000E+00 -0.14247660756E+04  0.14247660756E+04  0.00000000000E+00 0. -1.
  1000006    1    1    2  501    0 -0.55116701214E+02 -0.14205380856E+03 -0.38629701412E+03  0.54308610588E+03  0.35000000000E+03 0.  0.
 -1000006    1    1    2    0  503  0.12798123195E+03  0.43666285242E+02 -0.47739332363E+03  0.60719875300E+03  0.35000000000E+03 0.  0.
       21    1    1    2  504  502  0.19978603336E+02  0.66551744431E+02 -0.62879908717E+02  0.93713191165E+02  0.00000000000E+00 0.  1.
       21    1    1    2  505  504 -0.92843134074E+02  0.31835778889E+02 -0.33238776151E+03  0.34657609318E+03  0.00000000000E+00 0. -1.
<scales pt_clust_1="13000.00000" pt_clust_2="13000.00000" pt_clust_3="69.48582" pt_clust_4="98.33107"></scales>
<clustering>
<clus scale="   69.486">  1  5  2 -1</clus>
<clus scale="   98.331">  2  6  1 -1</clus>
<clus scale="  371.819">  1  3  2 -1</clus>
<clus scale="  371.819">  1  3  2 -1</clus>
</clustering>
</event>
<event>
 5   1  0.3464723E-02  0.5404688E+03  0.7816531E-02  0.1014263E+00
       21   -1    0    0  503  502  0.00000000000E+00  0.00000000000E+00  0.84359344747E+03  0.84359344747E+03  0.00000000000E+00 0. -1.
       21   -1    0    0  504  503  0.00000000000E+00  0.00000000000E+00 -0.84181411913E+03  0.84181411913E+03  0.00000000000E+00 0. -1.
  1000006    1    1    2  501    0 -0.52904280345E+03 -0.87783398249E+02  0.36182360379E+03  0.73553282262E+03  0.35000000000E+03 0.  0.
 -1000006    1    1    2    0  502  0.13472113709E+03  0.10720019204E+03  0.34686388055E+02  0.39159266013E+03  0.35000000000E+03 0.  0.
       21    1    1    2  504  501  0.39432166636E+03 -0.19416793795E+02 -0.39473066350E+03  0.55828208385E+03  0.00000000000E+00 0. -1.
<scales pt_clust_1="13000.00000" pt_clust_2="13000.00000" pt_clust_3="411.83313"></scales>
<clustering>
<clus scale="  390.053">  1  4  2 -1</clus>
<clus scale="  411.833">  2  5  1 -1</clus>
<clus scale="  540.469">  1  3  2 -1</clus>
</clustering>
</event>
<event>
 5   1  0.3464723E-02  0.3543911E+03  0.7816531E-02  0.1060827E+00
       21   -1    0    0  504  502  0.00000000000E+00  0.00000000000E+00  0.16012395155E+04  0.16012395155E+04  0.00000000000E+00 0.  1.
       21   -1    0    0  501  503  0.00000000000E+00  0.00000000000E+00 -0.35441780232E+03  0.35441780232E+03  0.00000000000E+00 0.  1.
  1000006    1    1    2  501    0  0.51493751396E+02  0.41229573092E+02 -0.18504691318E+03  0.40136497631E+03  0.35000000000E+03 0.  0.
 -1000006    1    1    2    0  502  0.94168143656E+02 -0.78846240241E+02  0.57459070158E+03  0.68391435372E+03  0.35000000000E+03 0.  0.
       21    1    1    2  504  503 -0.14566189505E+03  0.37616667149E+02  0.85727792480E+03  0.87037798781E+03  0.00000000000E+00 0.  1.
<scales pt_clust_1="13000.00000" pt_clust_2="13000.00000" pt_clust_3="150.44069"></scales>
<clustering>
<clus scale="  150.441">  1  5  2 -1</clus>
<clus scale="  354.391">  2  3  1 -1</clus>
<clus scale="  354.391">  1  3  2 -1</clus>
</clustering>
</event>
<event>
 4   0  0.3464723E-02  0.4006031E+03  0.7816531E-02  0.1043571E+00
       21   -1    0    0  501  502  0.00000000000E+00  0.00000000000E+00  0.18954616285E+04  0.18954616285E+04  0.00000000000E+00 0. -1.
       21   -1    0    0  502  503  0.00000000000E+00  0.00000000000E+00 -0.18668322127E+03  0.18668322127E+03  0.00000000000E+00 0. -1.
  1000006    1    1    2  501    0 -0.14253606950E+03 -0.13291471803E+03  0.16239857982E+04  0.16726663523E+04  0.35000000000E+03 0.  0.
 -1000006    1    1    2    0  503  0.14253606950E+03  0.13291471803E+03  0.84792609090E+02  0.40947849752E+03  0.35000000000E+03 0.  0.
<scales pt_clust_1="13000.00000" pt_clust_2="13000.00000"></scales>
<clustering>
<clus scale="  400.603">  1  3  2 -1</clus>
<clus scale="  400.603">  1  3  2 -1</clus>
</clustering>
</event>
<event>
 5   1  0.3464723E-02  0.7267902E+03  0.7816531E-02  0.9741837E-01
       21   -1    0    0  504  502  0.00000000000E+00  0.00000000000E+00  0.52659017420E+03  0.52659017420E+03  0.00000000000E+00 0.  1.
       21   -1    0    0  501  503  0.00000000000E+00  0.00000000000E+00 -0.21363954622E+04  0.21363954622E+04  0.00000000000E+00 0. -1.
  1000006    1    1    2  501    0 -0.28944900829E+03  0.74768198089E+03 -0.65063937663E+03  0.10902479862E+04  0.35000000000E+03 0.  0.
 -1000006    1    1    2    0  502  0.42736709346E+03 -0.16380058436E+03 -0.21067681465E+03  0.61348022319E+03  0.35000000000E+03 0.  0.
       21    1    1    2  504  503 -0.13791808517E+03 -0.58388139653E+03 -0.74848909672E+03  0.95925742704E+03  0.00000000000E+00 0. -1.
<scales pt_clust_1="13000.00000" pt_clust_2="13000.00000" pt_clust_3="636.96469"></scales>
<clustering>
<clus scale="  576.171">  1  4  2 -1</clus>
<clus scale="  636.965">  2  5  1 -1</clus>
<clus scale="  726.790">  1  3  2 -1</clus>
</clustering>
</event>
<event>
 5   1  0.3464723E-02  0.5108079E+03  0.7816531E-02  0.1010996E+00
       21   -1    0    0  504  502  0.00000000000E+00  0.00000000000E+00  0.35045240528E+03  0.35045240528E+03  0.00000000000E+00 0.  1.
       21   -1    0    0  501  503  0.00000000000E+00  0.00000000000E+00 -0.94097750782E+03  0.94097750782E+03  0.00000000000E+00 0. -1.
  1000006    1    1    2  501    0 -0.20778594609E+03  0.29455473773E+03 -0.51138524447E+03  0.71690470857E+03  0.35000000000E+03 0.  0.
 -1000006    1    1    2    0  502  0.23809936351E+03 -0.31893697726E+03 -0.76867961032E+02  0.53555651971E+03  0.35000000000E+03 0.  0.
       21    1    1    2  504  503 -0.30313417419E+02  0.24382239538E+02 -0.22718970288E+01  0.38968684820E+02  0.00000000000E+00 0. -1.
<scales pt_clust_1="13000.00000" pt_clust_2="13000.00000" pt_clust_3="38.90240"></scales>
<clustering>
<clus scale="   38.902">  1  5  2 -1</clus>
<clus scale="  510.808">  2  3  1 -1</clus>
<clus scale="  510.808">  1  3  2 -1</clus>
</clustering>
</event>
<event>
 6   2  0.3464723E-02  0.5509667E+03  0.7816531E-02  0.1001270E+00
        1   -1    0    0  501    0  0.00000000000E+00  0.00000000000E+00  0.27274970923E+04  0.27274970923E+04  0.00000000000E+00 0.  1.
       21   -1    0    0  502  503  0.00000000000E+00  0.00000000000E+00 -0.11826959946E+04  0.11826959946E+04  0.00000000000E+00 0. -1.
  1000006    1    1    2  501    0 -0.38132442537E+03 -0.96500139645E+02 -0.56988168620E+02  0.52959252799E+03  0.35000000000E+03 0.  0.
 -1000006    1    1    2    0  504  0.34208120658E+03  0.26442063441E+03  0.23530650262E+04  0.24179232497E+04  0.35000000000E+03 0.  0.
       21    1    1    2  504  503 -0.11474624993E+02 -0.79539728158E+02 -0.83001791396E+03  0.83389925822E+03  0.00000000000E+00 0. -1.
        1    1    1    2  502    0  0.50717843789E+02 -0.88380766603E+02  0.78742154087E+02  0.12877805098E+03  0.00000000000E+00 0.  1.
<scales pt_clust_1="13000.00000" pt_clust_2="13000.00000" pt_clust_3="80.36315" pt_clust_4="106.47140"></scales>
<clustering>
<clus scale="   80.363">  2  5  1 -1</clus>
<clus scale="  106.471">  2  6  1 -1</clus>
<clus scale=" 1737.424">  3  4 -1 -1</clus>
<clus scale="  550.967">  2  3  1 -1</clus>
</clustering>
</event>
<event>
 5   1  0.3464723E-02  0.4501733E+03  0.7816531E-02  0.1027670E+00
       21   -1    0    0  504  502  0.00000000000E+00  0.00000000000E+00  0.39494419578E+03  0.39494419578E+03  0.00000000000E+00 0.  1.
       21   -1    0    0  501  503  0.00000000000E+00  0.00000000000E+00 -0.65856726095E+03  0.65856726095E+03  0.00000000000E+00 0.  1.
  1000006    1    1    2  501    0 -0.21751179128E+03  0.22517573722E+03 -0.21138847872E+03  0.51497629160E+03  0.35000000000E+03 0.  0.
 -1000006    1    1    2    0  502  0.17614972285E+03 -0.17855709011E+03 -0.11946725861E+03  0.44685991672E+03  0.35000000000E+03 0.  0.
       21    1    1    2  504  503  0.41362068435E+02 -0.46618647110E+02  0.67232672173E+02  0.91675248410E+02  0.00000000000E+00 0.  1.
<scales pt_clust_1="13000.00000" pt_clust_2="13000.00000" pt_clust_3="62.32270"></scales>
<clustering>
<clus scale="   62.323">  1  5  2 -1</clus>
<clus scale="  450.173">  2  3  1 -1</clus>
<clus scale="  450.173">  1  3  2 -1</clus>
</clustering>
</event>
<event>
 4   0  0.3464723E-02  0.3834524E+03  0.7816531E-02  0.1049665E+00
       21   -1    0    0  503  502  0.00000000000E+00  0.00000000000E+00  0.17107373354E+04  0.17107373354E+04  0.00000000000E+00 0. -1.
       21   -1    0    0  501  503  0.00000000000E+00  0.00000000000E+00 -0.89989633865E+02  0.89989633865E+02  0.00000000000E+00 0. -1.
  1000006    1    1    2  501    0 -0.65394511814E+02  0.14233512420E+03  0.61958192233E+03  0.72864084996E+03  0.35000000000E+03 0.  0.
 -1000006    1    1    2    0  502  0.65394511814E+02 -0.14233512420E+03  0.10011657792E+04  0.10720861193E+04  0.35000000000E+03 0.  0.
<scales pt_clust_1="13000.00000" pt_clust_2="13000.00000"></scales>
<clustering>
<clus scale="  383.452">  2  3  1 -1</clus>
<clus scale="  383.452">  1  3  2 -1</clus>
</clustering>
</event>
<event>
 6   2  0.3464723E-02  0.4263573E+03  0.7816531E-02  0.1035017E+00
        2   -1    0    0  504    0  0.00000000000E+00  0.00000000000E+00  0.61598216873E+03  0.61598216873E+03  0.00000000000E+00 0. -1.
       21   -1    0    0  501  503  0.00000000000E+00  0.00000000000E+00 -0.76507837290E+03  0.76507837290E+03  0.00000000000E+00 0.  1.
  1000006    1    1    2  501    0  0.24291051009E+03  0.73977879156E+02 -0.48687831932E+03  0.65117489229E+03  0.35000000000E+03 0.  0.
 -1000006    1    1    2    0  502 -0.21448780205E+03 -0.21957672278E+02  0.70398160582E+02  0.41706481224E+03  0.35000000000E+03 0.  0.
       21    1    1    2  504  503 -0.36240448975E+02  0.44447383983E+02  0.55166897603E+02  0.79575917688E+02  0.00000000000E+00 0. -1.
        2    1    1    2  502    0  0.78177409306E+01 -0.96467590861E+02  0.21221705697E+03  0.23324491941E+03  0.00000000000E+00 0. -1.
<scales pt_clust_1="13000.00000" pt_clust_2="13000.00000" pt_clust_3="57.34928" pt_clust_4="78.72493"></scales>
<clustering>
<clus scale="   57.349">  1  5  2 -1</clus>
<clus scale="   78.725">  1  6  2 -1</clus>
<clus scale="  426.357">  2  3  1 -1</clus>
<clus scale="  426.357">  2  3  1 -1</clus>
</clustering>
</event>
<event>
 6   2  0.3464723E-02  0.3893130E+03  0.7816531E-02  0.1047544E+00
       21   -1    0    0  501  502  0.00000000000E+00  0.00000000000E+00  0.24713642309E+03  0.24713642309E+03  0.00000000000E+00 0. -1.
       21   -1    0    0  504  503  0.00000000000E+00  0.00000000000E+00 -0.25010819990E+04  0.25010819990E+04  0.00000000000E+00 0. -1.
  1000006    1    1    2  501    0  0.72683924282E+02  0.20401621602E+03 -0.28016987242E+02  0.41254153830E+03  0.35000000000E+03 0.  0.
 -1000006    1    1    2    0  503  0.33912600439E+02  0.79428738244E+02 -0.12001511564E+04  0.12531248090E+04  0.35000000000E+03 0.  0.
       21    1    1    2  504  505  0.12243241550E+02 -0.33675618961E+02 -0.35753794783E+03  0.35932899746E+03  0.00000000000E+00 0.  1.
       21    1    1    2  505  502 -0.11883976627E+03 -0.24976933531E+03 -0.66823948453E+03  0.72322307733E+03  0.00000000000E+00 0. -1.
<scales pt_clust_1="13000.00000" pt_clust_2="13000.00000" pt_clust_3="35.83217" pt_clust_4="284.88663"></scales>
<clustering>
<clus scale="   35.832">  2  5  1 -1</clus>
<clus scale="  284.887">  2  6  1 -1</clus>
<clus scale="  389.313">  1  3  2 -1</clus>
<clus scale="  389.313">  1  3  2 -1</clus>
</clustering>
</event>
<event>
 5   1  0.3464723E-02  0.3535074E+03  0.7816531E-02  0.1061185E+00
       21   -1    0    0  504  502  0.00000000000E+00  0.00000000000E+00  0.12118497684E+04  0.12118497684E+04  0.00000000000E+00 0.  1.
       21   -1    0    0  501  503  0.00000000000E+00  0.00000000000E+00 -0.16883034277E+03  0.16883034277E+03  0.00000000000E+00 0.  1.
  1000006    1    1    2  501    0 -0.22482479749E+02  0.18411205943E+02  0.28070963618E+03  0.44960241797E+03  0.35000000000E+03 0.  0.
 -1000006    1    1    2    0  502  0.61854933215E+02  0.73450524037E+01  0.79695489322E+03  0.87264946249E+03  0.35000000000E+03 0.  0.
       21    1    1    2  504  503 -0.39372453466E+02 -0.25756258346E+02 -0.34645103730E+02  0.58428230749E+02  0.00000000000E+00 0.  1.
<scales pt_clust_1="13000.00000" pt_clust_2="13000.00000" pt_clust_3="47.04864"></scales>
<clustering>
<clus scale="   47.049">  2  5  1 -1</clus>
<clus scale="  353.507">  2  3  1 -1</clus>
<clus scale="  353.507">  1  3  2 -1</clus>
</clustering>
</event>
<event>
 6   2  0.3464723E-02  0.4352232E+03  0.7816531E-02  0.1032223E+00
       21   -1    0    0  505  502  0.00000000000E+00  0.00000000000E+00  0.25607403910E+03  0.25607403910E+03  0.00000000000E+00 0.  1.
       21   -1    0    0  504  503  0.00000000000E+00  0.00000000000E+00 -0.17561473273E+04  0.17561473273E+04  0.00000000000E+00 0.  1.
  1000006    1    1    2  501    0 -0.17572350321E+03  0.17536791516E+03 -0.35010742948E+03  0.55381212286E+03  0.35000000000E+03 0.  0.
 -1000006    1    1    2    0  502  0.21829289371E+03 -0.16864297876E+03 -0.19009814699E+03  0.48448895469E+03  0.35000000000E+03 0.  0.
       21    1    1    2  504  501 -0.24884247630E+02 -0.31685053784E+02 -0.93096190616E+03  0.93183326788E+03  0.00000000000E+00 0.  1.
       21    1    1    2  505  503 -0.17685142863E+02  0.24960117388E+02 -0.28905805560E+02  0.42087020959E+02  0.00000000000E+00 0.  1.
<scales pt_clust_1="13000.00000" pt_clust_2="13000.00000" pt_clust_3="40.27339" pt_clust_4="30.59039"></scales>
<clustering>
<clus scale="   30.590">  1  6  2 -1</clus>
<clus scale="   40.273">  2  5  1 -1</clus>
<clus scale="  435.223">  1  4  2 -1</clus>
<clus scale="  435.223">  1  3  2 -1</clus>
</clustering>
</event>
<event>
 6   2  0.3464723E-02  0.3688961E+03  0.7816531E-02  0.1055116E+00
       21   -1    0    0  504  502  0.00000000000E+00  0.00000000000E+00  0.13554442521E+04  0.13554442521E+04  0.00000000000E+00 0.  1.
       21   -1    0    0  505  503  0.00000000000E+00  0.00000000000E+00 -0.51781082106E+03  0.51781082106E+03  0.00000000000E+00 0.  1.
  1000006    1    1    2  501    0  0.10171411868E+03  0.14190135486E+03  0.15567807266E+03  0.42097199284E+03  0.35000000000E+03 0.  0.
 -1000006    1    1    2    0  503 -0.57281057004E+02 -0.80396069381E+02 -0.28449673781E+03  0.46171749077E+03  0.35000000000E+03 0.  0.
       21    1    1    2  504  501 -0.72759088991E+02 -0.78296354191E+01  0.11092962232E+03  0.13289307480E+03  0.00000000000E+00 0.  1.
       21    1    1    2  505  502  0.28326027312E+02 -0.53675650061E+02  0.85552247384E+03  0.85767251470E+03  0.00000000000E+00 0.  1.
<scales pt_clust_1="13000.00000" pt_clust_2="13000.00000" pt_clust_3="69.08867" pt_clust_4="60.69134"></scales>
<clustering>
<clus scale="   60.691">  1  6  2 -1</clus>
<clus scale="   69.089">  1  5  2 -1</clus>
<clus scale="  368.896">  2  4  1 -1</clus>
<clus scale="  368.896">  1  3  2 -1</clus>
</clustering>
</event>
<event>
 5   1  0.3464723E-02  0.4101490E+03  0.7816531E-02  0.1040321E+00
       21   -1    0    0  504  502  0.00000000000E+00  0.00000000000E+00  0.13340175339E+04  0.13340175339E+04  0.00000000000E+00 0.  1.
       21   -1    0    0  502  503  0.00000000000E+00  0.00000000000E+00 -0.54990669433E+03  0.54990669433E+03  0.00000000000E+00 0. -1.
  1000006    1    1    2  501    0  0.20332913665E+03  0.11466856075E+03 -0.67857266524E+02  0.42614108609E+03  0.35000000000E+03 0.  0.
 -1000006    1    1    2    0  503 -0.19448477275E+03 -0.53894927809E+02 -0.16685185553E+03  0.43711386591E+03  0.35000000000E+03 0.  0.
       21    1    1    2  504  501 -0.88443639008E+01 -0.60773632945E+02  0.10188199616E+04  0.10206692762E+04  0.00000000000E+00 0.  1.
<scales pt_clust_1="13000.00000" pt_clust_2="13000.00000" pt_clust_3="61.41382"></scales>
<clustering>
<clus scale="   61.414">  1  5  2 -1</clus>
<clus scale="  410.149">  1  3  2 -1</clus>
<clus scale="  410.149">  1  3  2 -1</clus>
</clustering>
</event>
<event>
 6   2  0.3464723E-02  0.3586005E+03  0.7816531E-02  0.1059139E+00
       21   -1    0    0  504  502  0.00000000000E+00  0.00000000000E+00  0.16782623663E+04  0.16782623663E+04  0.00000000000E+00 0.  1.
       21   -1    0    0  501  503  0.00000000000E+00  0.00000000000E+00 -0.31858526819E+03  0.31858526819E+03  0.00000000000E+00 0.  1.
  1000006    1    1    2  501    0 -0.42122450530E+00  0.57277777288E+02  0.12824024092E+03  0.37712926245E+03  0.35000000000E+03 0.  0.
 -1000006    1    1    2    0  502 -0.15515372241E+03  0.65364007043E+01  0.22145753423E+03  0.44233340545E+03  0.35000000000E+03 0.  0.
       21    1    1    2  504  505  0.10750118784E+03 -0.53811820907E+02  0.10828562636E+04  0.10895090202E+04  0.00000000000E+00 0.  1.
       21    1    1    2  505  503  0.48073759076E+02 -0.10002357086E+02 -0.72876940698E+02  0.87875946336E+02  0.00000000000E+00 0.  1.
<scales pt_clust_1="13000.00000" pt_clust_2="13000.00000" pt_clust_3="120.88032" pt_clust_4="49.10329"></scales>
<clustering>
<clus scale="   49.103">  2  6  1 -1</clus>
<clus scale="  120.880">  1  5  2 -1</clus>
<clus scale="  358.601">  1  4  2 -1</clus>
<clus scale="  358.601">  1  3  2 -1</clus>
</clustering>
</event>
<event>
 5   1  0.3464723E-02  0.4055546E+03  0.7816531E-02  0.1041873E+00
       21   -1    0    0  504  502  0.00000000000E+00  0.00000000000E+00  0.58901565786E+03  0.58901565786E+03  0.00000000000E+00 0. -1.
       21   -1    0    0  501  503  0.00000000000E+00  0.00000000000E+00 -0.34316844279E+03  0.34316844279E+03  0.00000000000E+00 0. -1.
  1000006    1    1    2  501    0 -0.21763498662E+03  0.60934556476E+02  0.66835069590E+02  0.42195371085E+03  0.35000000000E+03 0.  0.
 -1000006    1    1    2    0  502  0.17367885493E+03 -0.81257273734E+02  0.21174608164E+03  0.45177814497E+03  0.35000000000E+03 0.  0.
       21    1    1    2  504  503  0.43956131683E+02  0.20322717257E+02 -0.32733936152E+02  0.58452244827E+02  0.00000000000E+00 0. -1.
<scales pt_clust_1="13000.00000" pt_clust_2="13000.00000" pt_clust_3="48.42679"></scales>
<clustering>
<clus scale="   48.427">  2  5  1 -1</clus>
<clus scale="  405.555">  2  3  1 -1</clus>
<clus scale="  405.555">  1  3  2 -1</clus>
</clustering>
</event>
<event>
 5   1  0.3464723E-02  0.3931449E+03  0.7816531E-02  0.1049675E+00
       21   -1    0    0  504  502  0.00000000000E+00  0.00000000000E+00  0.12525429462E+04  0.12525429462E+04  0.00000000000E+00 0. -1.
       21   -1    0    0  502  503  0.00000000000E+00  0.00000000000E+00 -0.63310426638E+03  0.63310426638E+03  0.00000000000E+00 0. -1.
  1000006    1    1    2  501    0 -0.16645403536E+03  0.18787899895E+03 -0.54980103823E+02  0.43419842924E+03  0.35000000000E+03 0.  0.
 -1000006    1    1    2    0  503 -0.22726275643E+03 -0.62074320751E+02 -0.21290668026E+03  0.47257892066E+03  0.35000000000E+03 0.  0.
       21    1    1    2  504  501  0.39371679179E+03 -0.12580467820E+03  0.88732546395E+03  0.97886986273E+03  0.00000000000E+00 0. -1.
<scales pt_clust_1="13000.00000" pt_clust_2="13000.00000" pt_clust_3="413.32763"></scales>
<clustering>
<clus scale="  413.328">  1  5  2 -1</clus>
<clus scale="  413.328">  1  3  2 -1</clus>
<clus scale="  373.948">  1  3  2 -1</clus>
</clustering>
</event>
<event>
 5   1  0.3464723E-02  0.5338556E+03  0.7816531E-02  0.1005301E+00
       21   -1    0    0  504  502  0.00000000000E+00  0.00000000000E+00  0.13100619452E+04  0.13100619452E+04  0.00000000000E+00 0.  1.
       21   -1    0    0  501  503  0.00000000000E+00  0.00000000000E+00 -0.25063405333E+03  0.25063405333E+03  0.00000000000E+00 0. -1.
  1000006    1    1    2  501    0 -0.37520593878E+02 -0.39683469501E+03  0.45433839003E+03  0.69843320567E+03  0.35000000000E+03 0.  0.
 -1000006    1    1    2    0  502 -0.17987913455E+02  0.40929241688E+03  0.46748617859E+03  0.71336328383E+03  0.35000000000E+03 0.  0.
       21    1    1    2  504  503  0.55508507334E+02 -0.12457721869E+02  0.13760332321E+03  0.14889950900E+03  0.00000000000E+00 0. -1.
<scales pt_clust_1="13000.00000" pt_clust_2="13000.00000" pt_clust_3="56.88927"></scales>
<clustering>
<clus scale="   56.889">  1  5  2 -1</clus>
<clus scale="  533.856">  1  4  2 -1</clus>
<clus scale="  533.856">  1  3  2 -1</clus>
</clustering>
</event>
<event>
 6   2  0.3464723E-02  0.3567822E+03  0.7816531E-02  0.1059865E+00
       21   -1    0    0  504  502  0.00000000000E+00  0.00000000000E+00  0.14971902000E+03  0.14971902000E+03  0.00000000000E+00 0.  1.
       21   -1    0    0  501  503  0.00000000000E+00  0.00000000000E+00 -0.14335713053E+04  0.14335713053E+04  0.00000000000E+00 0.  1.
  1000006    1    1    2  501    0  0.46971428287E+02 -0.71001357693E+02 -0.83674869390E+03  0.91098621538E+03  0.35000000000E+03 0.  0.
 -1000006    1    1    2    0  502 -0.34829430201E+02  0.66140939747E+02 -0.34297273252E+03  0.49569951419E+03  0.35000000000E+03 0.  0.
       21    1    1    2  504  505 -0.78899612553E+01 -0.35796092042E+02  0.22858043119E+02  0.43198400773E+02  0.00000000000E+00 0.  1.
       21    1    1    2  505  503 -0.42520368313E+01  0.40656509988E+02 -0.12698890200E+03  0.13340619496E+03  0.00000000000E+00 0.  1.
<scales pt_clust_1="13000.00000" pt_clust_2="13000.00000" pt_clust_3="36.65531" pt_clust_4="39.92314"></scales>
<clustering>
<clus scale="   36.655">  1  5  2 -1</clus>
<clus scale="   39.923">  2  6  1 -1</clus>
<clus scale="  356.782">  2  3  1 -1</clus>
<clus scale="  356.782">  1  3  2 -1</clus>
</clustering>
</event>
<event>
 5   1  0.3464723E-02  0.6090225E+03  0.7816531E-02  0.9886862E-01
       21   -1    0    0  504  502  0.00000000000E+00  0.00000000000E+00  0.86348640574E+03  0.86348640574E+03  0.00000000000E+00 0. -1.
       21   -1    0    0  501  503  0.00000000000E+00  0.00000000000E+00 -0.56906045652E+03  0.56906045652E+03  0.00000000000E+00 0.  1.
  1000006    1    1    2  501    0  0.24549527360E+03  0.42815504368E+03 -0.14825095604E+03  0.62294704170E+03  0.35000000000E+03 0.  0.
 -1000006    1    1    2    0  502 -0.28101410983E+03 -0.42556713108E+03  0.35084390918E+03  0.71110320038E+03  0.35000000000E+03 0.  0.
       21    1    1    2  504  503  0.35518836226E+02 -0.25879126007E+01  0.91832996079E+02  0.98496620182E+02  0.00000000000E+00 0. -1.
<scales pt_clust_1="13000.00000" pt_clust_2="13000.00000" pt_clust_3="35.61299"></scales>
<clustering>
<clus scale="   35.613">  1  5  2 -1</clus>
<clus scale="  609.023">  2  3  1 -1</clus>
<clus scale="  609.023">  1  3  2 -1</clus>
</clustering>
</event>
<event>
 6   2  0.3464723E-02  0.3502974E+03  0.7816531E-02  0.1062493E+00
       21   -1    0    0  501  502  0.00000000000E+00  0.00000000000E+00  0.14357339405E+04  0.14357339405E+04  0.00000000000E+00 0.  1.
       21   -1    0    0  504  503  0.00000000000E+00  0.00000000000E+00 -0.33026156092E+03  0.33026156092E+03  0.00000000000E+00 0.  1.
  1000006    1    1    2  501    0 -0.21264560961E+02 -0.39964600271E+02  0.87923123759E+03  0.94741591711E+03  0.35000000000E+03 0.  0.
 -1000006    1    1    2    0  505 -0.89988478927E+01 -0.12697353160E+03  0.18763568608E+03  0.41702566789E+03  0.35000000000E+03 0.  0.
       21    1    1    2  504  502 -0.44417590914E+02  0.16435891719E+03  0.17617544844E+03  0.24499911159E+03  0.00000000000E+00 0.  1.
       21    1    1    2  505  503  0.74680999768E+02  0.25792146778E+01 -0.13756999253E+03  0.15655480484E+03  0.00000000000E+00 0.  1.
<scales pt_clust_1="13000.00000" pt_clust_2="13000.00000" pt_clust_3="167.62122" pt_clust_4="74.72552"></scales>
<clustering>
<clus scale="   74.726">  2  6  1 -1</clus>
<clus scale="  167.621">  2  5  1 -1</clus>
<clus scale="  350.297">  1  3  2 -1</clus>
<clus scale="  350.297">  1  3  2 -1</clus>
</clustering>
</event>
<event>
 6   2  0.3464723E-02  0.6409575E+03  0.7816531E-02  0.9823896E-01
       21   -1    0    0  501  502  0.00000000000E+00  0.00000000000E+00  0.29706151661E+04  0.29706151661E+04  0.00000000000E+00 0.  1.
       21   -1    0    0  505  503  0.00000000000E+00  0.00000000000E+00 -0.29008326108E+03  0.29008326108E+03  0.00000000000E+00 0. -1.
  1000006    1    1    2  501    0  0.47692206356E+03 -0.20131569803E+03  0.11146629767E+04  0.12778717528E+04  0.35000000000E+03 0.  0.
 -1000006    1    1    2    0  504 -0.51067140926E+03  0.23445982354E+03  0.11851362061E+04  0.13574993643E+04  0.35000000000E+03 0.  0.
       21    1    1    2  504  503  0.33858997889E+02 -0.14655831682E+03 -0.66117813085E+02  0.16430866433E+03  0.00000000000E+00 0. -1.
       21    1    1    2  505  502 -0.10965218598E+00  0.11341419131E+03  0.44685053529E+03  0.46101864572E+03  0.00000000000E+00 0.  1.
<scales pt_clust_1="13000.00000" pt_clust_2="13000.00000" pt_clust_3="148.26330" pt_clust_4="113.41424"></scales>
<clustering>
<clus scale="  113.414">  1  6  2 -1</clus>
<clus scale="  148.263">  2  5  1 -1</clus>
<clus scale="  640.957">  2  4  1 -1</clus>
<clus scale="  640.957">  1  3  2 -1</clus>
</clustering>
</event>
<event>
 4   0  0.3464723E-02  0.3636570E+03  0.7816531E-02  0.1057145E+00
       21   -1    0    0  503  502  0.00000000000E+00  0.00000000000E+00  0.90765004561E+02  0.90765004561E+02  0.00000000000E+00 0. -1.
       21   -1    0    0  501  503  0.00000000000E+00  0.00000000000E+00 -0.19458762997E+04  0.19458762997E+04  0.00000000000E+00 0. -1.
  1000006    1    1    2  501    0  0.73769087759E+02 -0.65608791491E+02 -0.14379639350E+04  0.14832352039E+04  0.35000000000E+03 0.  0.
 -1000006    1    1    2    0  502 -0.73769087759E+02  0.65608791491E+02 -0.41714736022E+03  0.55340610041E+03  0.35000000000E+03 0.  0.
<scales pt_clust_1="13000.00000" pt_clust_2="13000.00000"></scales>
<clustering>
<clus scale="  363.657">  2  3  1 -1</clus>
<clus scale="  363.657">  1  3  2 -1</clus>
</clustering>
</event>
<event>
 5   1  0.3464723E-02  0.3790338E+03  0.7816531E-02  0.1051291E+00
       21   -1    0    0  501  502  0.00000000000E+00  0.00000000000E+00  0.76274807892E+03  0.76274807892E+03  0.00000000000E+00 0. -1.
       21   -1    0    0  502  503  0.00000000000E+00  0.00000000000E+00 -0.37340629193E+03  0.37340629193E+03  0.00000000000E+00 0. -1.
  1000006    1    1    2  501    0  0.99815348550E+02 -0.82106443275E+02  0.45545653206E+03  0.58876584856E+03  0.35000000000E+03 0.  0.
 -1000006    1    1    2    0  504 -0.15612148094E+03  0.10315146280E+03  0.65917034972E+02  0.40231728348E+03  0.35000000000E+03 0.  0.
       21    1    1    2  504  503  0.56306132390E+02 -0.21045019526E+02 -0.13203178003E+03  0.14507123881E+03  0.00000000000E+00 0. -1.
<scales pt_clust_1="13000.00000" pt_clust_2="13000.00000" pt_clust_3="60.11051"></scales>
<clustering>
<clus scale="   60.111">  2  5  1 -1</clus>
<clus scale="  379.034">  1  3  2 -1</clus>
<clus scale="  379.034">  1  3  2 -1</clus>
</clustering>
</event>
<event>
 6   2  0.3464723E-02  0.3727465E+03  0.7816531E-02  0.1053648E+00
       21   -1    0    0  504  502  0.00000000000E+00  0.00000000000E+00  0.17418600479E+03  0.17418600479E+03  0.00000000000E+00 0. -1.
       21   -1    0    0  505  503  0.00000000000E+00  0.00000000000E+00 -0.12269027188E+04  0.12269027188E+04  0.00000000000E+00 0. -1.
  1000006    1    1    2  501    0 -0.11124644339E+03  0.10813787952E+03 -0.35377733182E+03  0.52127533287E+03  0.35000000000E+03 0.  0.
 -1000006    1    1    2    0  503  0.67052095706E+02 -0.80393406575E+02 -0.67314265195E+03  0.76588518280E+03  0.35000000000E+03 0.  0.
       21    1    1    2  504  501  0.12427728565E+02 -0.31053663945E+02  0.33018902147E+02  0.47000280645E+02  0.00000000000E+00 0. -1.
       21    1    1    2  505  502  0.31766619122E+02  0.33091909996E+01 -0.58815632380E+02  0.66927927264E+02  0.00000000000E+00 0.  1.
<scales pt_clust_1="13000.00000" pt_clust_2="13000.00000" pt_clust_3="33.50109" pt_clust_4="31.93852"></scales>
<clustering>
<clus scale="   31.939">  2  6  1 -1</clus>
<clus scale="   33.501">  1  5  2 -1</clus>
<clus scale="  372.747">  2  4  1 -1</clus>
<clus scale="  372.747">  1  3  2 -1</clus>
</clustering>
</event>
<event>
 6   2  0.3464723E-02  0.4023946E+03  0.7816531E-02  0.1042954E+00
       21   -1    0    0  501  503  0.00000000000E+00  0.00000000000E+00  0.12774012367E+03  0.12774012367E+03  0.00000000000E+00 0. -1.
        1   -1    0    0  504    0  0.00000000000E+00  0.00000000000E+00 -0.32987122227E+04  0.32987122227E+04  0.00000000000E+00 0. -1.
  1000006    1    1    2  501    0 -0.46507442859E+02  0.17075614009E+03 -0.40698062116E+03  0.56520246604E+03  0.35000000000E+03 0.  0.
 -1000006    1    1    2    0  502  0.42730933521E+02 -0.22060673556E+03 -0.10298918891E+04  0.11107072376E+04  0.35000000000E+03 0.  0.
       21    1    1    2  504  503 -0.53567501017E+02  0.22280536937E+01 -0.90034323182E+02  0.10478845709E+03  0.00000000000E+00 0. -1.
        1    1    1    2  502    0  0.57344010355E+02  0.47622541773E+02 -0.16440652655E+04  0.16457541856E+04  0.00000000000E+00 0. -1.
<scales pt_clust_1="13000.00000" pt_clust_2="13000.00000" pt_clust_3="53.61382" pt_clust_4="74.26149"></scales>
<clustering>
<clus scale="   53.614">  1  5  2 -1</clus>
<clus scale="   74.261">  2  6  1 -1</clus>
<clus scale="  402.395">  2  4  1 -1</clus>
<clus scale="  402.395">  1  3  2 -1</clus>
</clustering>
</event>
<event>
 5   1  0.3464723E-02  0.3797606E+03  0.7816531E-02  0.1051022E+00
       21   -1    0    0  504  502  0.00000000000E+00  0.00000000000E+00  0.44426796969E+03  0.44426796969E+03  0.00000000000E+00 0. -1.
       21   -1    0    0  501  503  0.00000000000E+00  0.00000000000E+00 -0.47704310598E+03  0.47704310598E+03  0.00000000000E+00 0. -1.
  1000006    1    1    2  501    0  0.24050824647E+02  0.15636616293E+03 -0.13212446601E+03  0.40618430988E+03  0.35000000000E+03 0.  0.
 -1000006    1    1    2    0  502  0.71040198454E+01 -0.13531118393E+03 -0.33741187174E+02  0.37682628797E+03  0.35000000000E+03 0.  0.
       21    1    1    2  504  503 -0.31154844492E+02 -0.21054979000E+02  0.13309051689E+03  0.13830047781E+03  0.00000000000E+00 0. -1.
<scales pt_clust_1="13000.00000" pt_clust_2="13000.00000" pt_clust_3="37.60235"></scales>
<clustering>
<clus scale="   37.602">  1  5  2 -1</clus>
<clus scale="  379.761">  2  3  1 -1</clus>
<clus scale="  379.761">  1  3  2 -1</clus>
</clustering>
</event>
<event>
 5   1  0.3464723E-02  0.4086078E+03  0.7816531E-02  0.1040839E+00
       21   -1    0    0  503  502  0.00000000000E+00  0.00000000000E+00  0.47566523929E+03  0.47566523929E+03  0.00000000000E+00 0. -1.
       21   -1    0    0  504  503  0.00000000000E+00  0.00000000000E+00 -0.45247249771E+03  0.45247249771E+03  0.00000000000E+00 0. -1.
  1000006    1    1    2  501    0  0.96517654245E+02 -0.16485505434E+03 -0.48309380902E+02  0.40165488022E+03  0.35000000000E+03 0.  0.
 -1000006    1    1    2    0  502 -0.10281671374E+03  0.19883067703E+03  0.14920950083E+03  0.44143899906E+03  0.35000000000E+03 0.  0.
       21    1    1    2  504  501  0.62990594961E+01 -0.33975622685E+02 -0.77707378341E+02  0.85043857721E+02  0.00000000000E+00 0.  1.
<scales pt_clust_1="13000.00000" pt_clust_2="13000.00000" pt_clust_3="34.55461"></scales>
<clustering>
<clus scale="   34.555">  2  5  1 -1</clus>
<clus scale="  408.608">  2  3  1 -1</clus>
<clus scale="  408.608">  1  3  2 -1</clus>
</clustering>
</event>
<event>
 6   2  0.3464723E-02  0.3661813E+03  0.7816531E-02  0.1056163E+00
        1   -1    0    0  504    0  0.00000000000E+00  0.00000000000E+00  0.18259898810E+04  0.18259898810E+04  0.00000000000E+00 0. -1.
       21   -1    0    0  501  503  0.00000000000E+00  0.00000000000E+00 -0.40078213298E+03  0.40078213298E+03  0.00000000000E+00 0.  1.
  1000006    1    1    2  501    0 -0.56955532479E-01 -0.12623496437E+03  0.15923764455E+02  0.37240950008E+03  0.35000000000E+03 0.  0.
 -1000006    1    1    2    0  502 -0.63639997856E+01  0.90248876241E+02  0.11432858068E+03  0.37915219176E+03  0.35000000000E+03 0.  0.
       21    1    1    2  504  503  0.65743047328E+02  0.25602223161E+02 -0.75556947776E+02  0.10337540549E+03  0.00000000000E+00 0.  1.
        1    1    1    2  502    0 -0.59322092009E+02  0.10383864967E+02  0.13705123507E+04  0.13718349167E+04  0.00000000000E+00 0. -1.
<scales pt_clust_1="13000.00000" pt_clust_2="13000.00000" pt_clust_3="68.98357" pt_clust_4="60.22404"></scales>
<clustering>
<clus scale="   60.224">  1  6  2 -1</clus>
<clus scale="   68.984">  2  5  1 -1</clus>
<clus scale="  366.181">  2  3  1 -1</clus>
<clus scale="  366.181">  2  3  1 -1</clus>
</clustering>
</event>
<event>
 4   0  0.3464723E-02  0.3853396E+03  0.7816531E-02  0.1048978E+00
       21   -1    0    0  503  502  0.00000000000E+00  0.00000000000E+00  0.71628084340E+03  0.71628084340E+03  0.00000000000E+00 0.  1.
       21   -1    0    0  501  503  0.00000000000E+00  0.00000000000E+00 -0.20754879675E+03  0.20754879675E+03  0.00000000000E+00 0.  1.
  1000006    1    1    2  501    0 -0.14121543776E+03 -0.77748175897E+02  0.23844338418E+03  0.45314658354E+03  0.35000000000E+03 0.  0.
 -1000006    1    1    2    0  502  0.14121543776E+03  0.77748175897E+02  0.27028866247E+03  0.47068305661E+03  0.35000000000E+03 0.  0.
<scales pt_clust_1="13000.00000" pt_clust_2="13000.00000"></scales>
<clustering>
<clus scale="  385.340">  2  3  1 -1</clus>
<clus scale="  385.340">  1  3  2 -1</clus>
</clustering>
</event>
<event>
 6   2  0.3464723E-02  0.5446643E+03  0.7816531E-02  0.1011513E+00
        2   -1    0    0  504    0  0.00000000000E+00  0.00000000000E+00  0.15601359267E+04  0.15601359267E+04  0.00000000000E+00 0.  1.
       21   -1    0    0  501  503  0.00000000000E+00  0.00000000000E+00 -0.47076903167E+03  0.47076903167E+03  0.00000000000E+00 0. -1.
  1000006    1    1    2  501    0 -0.14365547536E+03 -0.16269221579E+03  0.69141664873E+02  0.41759576447E+03  0.35000000000E+03 0.  0.
 -1000006    1    1    2    0  502  0.31329345696E+03 -0.22527471761E+03  0.51472180707E+02  0.52349868572E+03  0.35000000000E+03 0.  0.
       21    1    1    2  504  503 -0.92687381758E+01 -0.36360899755E+02  0.33279747512E+02  0.50155419775E+02  0.00000000000E+00 0.  1.
        2    1    1    2  502    0 -0.16036924343E+03  0.42432783315E+03  0.93547330194E+03  0.10396550884E+04  0.00000000000E+00 0.  1.
<scales pt_clust_1="13000.00000" pt_clust_2="13000.00000" pt_clust_3="37.52365" pt_clust_4="417.32382"></scales>
<clustering>
<clus scale="   37.524">  1  5  2 -1</clus>
<clus scale="  414.687">  2  3  1 -1</clus>
<clus scale="  417.324">  1  6  2 -1</clus>
<clus scale="  544.664">  2  3  1 -1</clus>
</clustering>
</event>
<event>
 5   1  0.3464723E-02  0.3723678E+03  0.7816531E-02  0.1053791E+00
       21   -1    0    0  504  502  0.00000000000E+00  0.00000000000E+00  0.16497673764E+04  0.16497673764E+04  0.00000000000E+00 0.  1.
       21   -1    0    0  501  503  0.00000000000E+00  0.00000000000E+00 -0.10680580900E+03  0.10680580900E+03  0.00000000000E+00 0.  1.
  1000006    1    1    2  501    0  0.15292663090E+03 -0.18609363537E+02  0.52892158686E+03  0.65267978971E+03  0.35000000000E+03 0.  0.
 -1000006    1    1    2    0  502 -0.81054617906E+02  0.38461812485E+02  0.85688844752E+03  0.92994998446E+03  0.35000000000E+03 0.  0.
       21    1    1    2  504  503 -0.71872012990E+02 -0.19852448948E+02  0.15715153301E+03  0.17394341122E+03  0.00000000000E+00 0. -1.
<scales pt_clust_1="13000.00000" pt_clust_2="13000.00000" pt_clust_3="74.56344"></scales>
<clustering>
<clus scale="   74.563">  1  5  2 -1</clus>
<clus scale="  372.368">  1  4  2 -1</clus>
<clus scale="  372.368">  1  3  2 -1</clus>
</clustering>
</event>
<event>
 6   2  0.3464723E-02  0.4135303E+03  0.7816531E-02  0.1039193E+00
       21   -1    0    0  501  503  0.00000000000E+00  0.00000000000E+00  0.55061751333E+03  0.55061751333E+03  0.00000000000E+00 0.  1.
        2   -1    0    0  504    0  0.00000000000E+00  0.00000000000E+00 -0.25078462813E+04  0.25078462813E+04  0.00000000000E+00 0.  1.
  1000006    1    1    2  501    0 -0.41512603213E+02 -0.22077113817E+03  0.32710557039E+03  0.52911364172E+03  0.35000000000E+03 0.  0.
 -1000006    1    1    2    0  502 -0.13423039017E+02  0.20907123058E+03 -0.25246295505E+03  0.47971710529E+03  0.35000000000E+03 0.  0.
       21    1    1    2  504  503  0.34289224409E+02 -0.26491704398E+02 -0.45661244528E+02  0.62948475472E+02  0.00000000000E+00 0. -1.
        2    1    1    2  502    0  0.20646417821E+02  0.38191611982E+02 -0.19862101388E+04  0.19866845722E+04  0.00000000000E+00 0.  1.
<scales pt_clust_1="13000.00000" pt_clust_2="13000.00000" pt_clust_3="43.33084" pt_clust_4="51.22162"></scales>
<clustering>
<clus scale="   43.331">  2  5  1 -1</clus>
<clus scale="   51.222">  2  6  1 -1</clus>
<clus scale="  413.530">  2  4  1 -1</clus>
<clus scale="  413.530">  1  3  2 -1</clus>
</clustering>
</event>
<event>
 5   1  0.3464723E-02  0.5238471E+03  0.7816531E-02  0.1007735E+00
       21   -1    0    0  504  502  0.00000000000E+00  0.00000000000E+00  0.11786519931E+04  0.11786519931E+04  0.00000000000E+00 0.  1.
       21   -1    0    0  501  503  0.00000000000E+00  0.00000000000E+00 -0.22331456993E+04  0.22331456993E+04  0.00000000000E+00 0.  1.
  1000006    1    1    2  501    0 -0.39278448863E+03  0.32461577584E+00  0.35563330388E+02  0.52729926072E+03  0.35000000000E+03 0.  0.
 -1000006    1    1    2    0  502  0.36179670597E+03  0.16453783832E+03  0.81506327851E+03  0.97200704970E+03  0.35000000000E+03 0.  0.
       21    1    1    2  504  503  0.30987782665E+02 -0.16486245409E+03 -0.19051203151E+04  0.19124913820E+04  0.00000000000E+00 0.  1.
<scales pt_clust_1="13000.00000" pt_clust_2="13000.00000" pt_clust_3="167.74943"></scales>
<clustering>
<clus scale="  167.749">  2  5  1 -1</clus>
<clus scale="  523.847">  1  4  2 -1</clus>
<clus scale="  523.847">  1  3  2 -1</clus>
</clustering>
</event>
<event>
 6   2  0.3464723E-02  0.4052788E+03  0.7816531E-02  0.1041967E+00
       21   -1    0    0  504  502  0.00000000000E+00  0.00000000000E+00  0.83967206393E+03  0.83967206393E+03  0.00000000000E+00 0. -1.
       21   -1    0    0  505  503  0.00000000000E+00  0.00000000000E+00 -0.51128407567E+03  0.51128407567E+03  0.00000000000E+00 0. -1.
  1000006    1    1    2  501    0  0.28269333071E+03 -0.94620044328E+02  0.58911225193E+02  0.46350728632E+03  0.35000000000E+03 0.  0.
 -1000006    1    1    2    0  502 -0.34602277588E+02  0.20611707586E+03  0.39994310795E+03  0.57108323051E+03  0.35000000000E+03 0.  0.
       21    1    1    2  504  503 -0.29682145816E+02 -0.22052811145E+02  0.14122613263E+02  0.39582880959E+02  0.00000000000E+00 0. -1.
       21    1    1    2  505  501 -0.21840890730E+03 -0.89444220392E+02 -0.14458895814E+03  0.27678274181E+03  0.00000000000E+00 0. -1.
<scales pt_clust_1="13000.00000" pt_clust_2="13000.00000" pt_clust_3="36.97778" pt_clust_4="238.92866"></scales>
<clustering>
<clus scale="   36.978">  1  5  2 -1</clus>
<clus scale="  238.929">  2  6  1 -1</clus>
<clus scale="  405.279">  2  3  1 -1</clus>
<clus scale="  405.279">  1  3  2 -1</clus>
</clustering>
</event>
<event>
 4   0  0.3464723E-02  0.3778934E+03  0.7816531E-02  0.1051715E+00
       21   -1    0    0  501  502  0.00000000000E+00  0.00000000000E+00  0.12774757092E+03  0.12774757092E+03  0.00000000000E+00 0. -1.
       21   -1    0    0  502  503  0.00000000000E+00  0.00000000000E+00 -0.11466090989E+04  0.11466090989E+04  0.00000000000E+00 0. -1.
  1000006    1    1    2  501    0 -0.59246495309E+02  0.12958890389E+03 -0.40853030991E+03  0.55650736323E+03  0.35000000000E+03 0.  0.
 -1000006    1    1    2    0  503  0.59246495309E+02 -0.12958890389E+03 -0.61033121805E+03  0.71784930657E+03  0.35000000000E+03 0.  0.
<scales pt_clust_1="13000.00000" pt_clust_2="13000.00000"></scales>
<clustering>
<clus scale="  377.893">  1  3  2 -1</clus>
<clus scale="  377.893">  1  3  2 -1</clus>
</clustering>
</event>
<event>
 5   1  0.3464723E-02  0.4459771E+03  0.7816531E-02  0.1028929E+00
       21   -1    0    0  501  502  0.00000000000E+00  0.00000000000E+00  0.12575702512E+03  0.12575702512E+03  0.00000000000E+00 0. -1.
       21   -1    0    0  504  503  0.00000000000E+00  0.00000000000E+00 -0.26544735561E+04  0.26544735561E+04  0.00000000000E+00 0. -1.
  1000006    1    1    2  501    0  0.77865439621E+02 -0.27016447342E+03 -0.40425431724E+03  0.60413030249E+03  0.35000000000E+03 0.  0.
 -1000006    1    1    2    0  503 -0.89813596901E+02  0.24127558007E+03 -0.20462845393E+04  0.20919036315E+04  0.35000000000E+03 0.  0.
       21    1    1    2  504  502  0.11948157280E+02  0.28888893354E+02 -0.78177674449E+02  0.84196647225E+02  0.00000000000E+00 0. -1.
<scales pt_clust_1="13000.00000" pt_clust_2="13000.00000" pt_clust_3="31.26222"></scales>
<clustering>
<clus scale="   31.262">  2  5  1 -1</clus>
<clus scale="  445.977">  2  4  1 -1</clus>
<clus scale="  445.977">  1  3  2 -1</clus>
</clustering>
</event>
<event>
 5   1  0.3464723E-02  0.5729726E+03  0.7816531E-02  0.9963122E-01
        2   -1    0    0  503    0  0.00000000000E+00  0.00000000000E+00  0.13360213919E+04  0.13360213919E+04  0.00000000000E+00 0.  1.
       -2   -1    0    0    0  501  0.00000000000E+00  0.00000000000E+00 -0.31645554449E+03  0.31645554449E+03  0.00000000000E+00 0. -1.
  1000006    1    1    2  502    0  0.26411275855E+03  0.36907232271E+03  0.32086706513E+03  0.65682996438E+03  0.35000000000E+03 0.  0.
 -1000006    1    1    2    0  501 -0.36277283370E+03 -0.28870304214E+03  0.55054574132E+03  0.80034629299E+03  0.35000000000E+03 0.  0.
       21    1    1    2  503  502  0.98660075143E+02 -0.80369280569E+02  0.14815304099E+03  0.19530067906E+03  0.00000000000E+00 0.  1.
<scales pt_clust_1="13000.00000" pt_clust_2="13000.00000" pt_clust_3="127.25184"></scales>
<clustering>
<clus scale="  127.252">  1  5  2 -1</clus>
<clus scale="  990.106">  3  4 -1 -1</clus>
<clus scale="  572.973">  1  3  2 -1</clus>
</clustering>
</event>
<event>
 6   2  0.3464723E-02  0.3679973E+03  0.7816531E-02  0.1055461E+00
       21   -1    0    0  501  502  0.00000000000E+00  0.00000000000E+00  0.42646876814E+03  0.42646876814E+03  0.00000000000E+00 0.  1.
       21   -1    0    0  504  503  0.00000000000E+00  0.00000000000E+00 -0.20477826740E+04  0.20477826740E+04  0.00000000000E+00 0.  1.
  1000006    1    1    2  501    0 -0.92073848050E+02 -0.59969071457E+02 -0.28697873370E+02  0.36796392617E+03  0.35000000000E+03 0.  0.
 -1000006    1    1    2    0  503 -0.32910444232E+03  0.73317145655E+02 -0.11598117780E+04  0.12575167983E+04  0.35000000000E+03 0.  0.
       21    1    1    2  504  505  0.19215082008E+03 -0.14448864032E+03 -0.51830699090E+03  0.57135019178E+03  0.00000000000E+00 0.  1.
       21    1    1    2  505  502  0.22902747028E+03  0.13114056612E+03  0.85502736384E+02  0.27742052583E+03  0.00000000000E+00 0.  1.
<scales pt_clust_1="13000.00000" pt_clust_2="13000.00000" pt_clust_3="240.41403" pt_clust_4="270.34604"></scales>
<clustering>
<clus scale="  240.414">  2  5  1 -1</clus>
<clus scale="  270.346">  1  6  2 -1</clus>
<clus scale="  367.997">  2  4  1 -1</clus>
<clus scale="  367.997">  1  3  2 -1</clus>
</clustering>
</event>
<event>
 6   2  0.3464723E-02  0.4041439E+03  0.7816531E-02  0.1042354E+00
       21   -1    0    0  504  502  0.00000000000E+00  0.00000000000E+00  0.44162225057E+03  0.44162225057E+03  0.00000000000E+00 0. -1.
       21   -1    0    0  505  503  0.00000000000E+00  0.00000000000E+00 -0.14389192667E+04  0.14389192667E+04  0.00000000000E+00 0. -1.
  1000006    1    1    2  501    0  0.23873642106E+03 -0.88638451934E+02 -0.55583433668E+03  0.70448822824E+03  0.35000000000E+03 0.  0.
 -1000006    1    1    2    0  503 -0.17336899917E+03 -0.46630473772E+02 -0.62294846790E+03  0.73674690676E+03  0.35000000000E+03 0.  0.
       21    1    1    2  504  501  0.14160358290E+03  0.81933720274E+02  0.76022766657E+01  0.16377577299E+03  0.00000000000E+00 0.  1.
       21    1    1    2  505  502 -0.20697100480E+03  0.53335205432E+02  0.17388351180E+03  0.27553060926E+03  0.00000000000E+00 0. -1.
<scales pt_clust_1="13000.00000" pt_clust_2="13000.00000" pt_clust_3="163.59923" pt_clust_4="157.67555"></scales>
<clustering>
<clus scale="  163.599">  1  5  2 -1</clus>
<clus scale="  157.676">  1  6  2 -1</clus>
<clus scale="  404.144">  1  3  2 -1</clus>
<clus scale="  404.144">  1  3  2 -1</clus>
</clustering>
</event>
<event>
 6   2  0.3464723E-02  0.3784500E+03  0.7816531E-02  0.1051508E+00
       -4   -1    0    0    0  501  0.00000000000E+00  0.00000000000E+00  0.34166150366E+03  0.34166150366E+03  0.00000000000E+00 0. -1.
       21   -1    0    0  504  503  0.00000000000E+00  0.00000000000E+00 -0.19442537500E+04  0.19442537500E+04  0.00000000000E+00 0. -1.
  1000006    1    1    2  502    0  0.26283835158E+02 -0.13331497893E+03 -0.77988400032E+03  0.86555345159E+03  0.35000000000E+03 0.  0.
 -1000006    1    1    2    0  503  0.11125560231E+03  0.13818891597E+03 -0.10003711516E+04  0.10745773246E+04  0.35000000000E+03 0.  0.
       21    1    1    2  504  501 -0.12385644991E+03  0.10775503777E+03  0.16306708047E+03  0.23139239633E+03  0.00000000000E+00 0. -1.
       -4    1    1    2    0  502 -0.13682987560E+02 -0.11262897481E+03  0.14595825142E+02  0.11439208114E+03  0.00000000000E+00 0. -1.
<scales pt_clust_1="13000.00000" pt_clust_2="13000.00000" pt_clust_3="136.41628" pt_clust_4="113.45708"></scales>
<clustering>
<clus scale="  113.457">  1  6  2 -1</clus>
<clus scale="  136.416">  1  5  2 -1</clus>
<clus scale="  378.450">  1  3  2 -1</clus>
<clus scale="  378.450">  2  3  1 -1</clus>
</clustering>
</event>
<event>
 5   1  0.3464723E-02  0.3767368E+03  0.7816531E-02  0.1052146E+00
       21   -1    0    0  501  502  0.00000000000E+00  0.00000000000E+00  0.16190852221E+04  0.16190852221E+04  0.00000000000E+00 0.  1.
       21   -1    0    0  504  503  0.00000000000E+00  0.00000000000E+00 -0.54974195254E+03  0.54974195254E+03  0.00000000000E+00 0. -1.
  1000006    1    1    2  501    0 -0.68919298015E+02 -0.11292645142E+03  0.21991918540E+03  0.43401232837E+03  0.35000000000E+03 0.  0.
 -1000006    1    1    2    0  503  0.29846258947E+02  0.13949302600E+03 -0.36148050921E+03  0.52298877810E+03  0.35000000000E+03 0.  0.
       21    1    1    2  504  502  0.39073039068E+02 -0.26566574575E+02  0.12109045934E+04  0.12118260682E+04  0.00000000000E+00 0.  1.
<scales pt_clust_1="13000.00000" pt_clust_2="13000.00000" pt_clust_3="47.24918"></scales>
<clustering>
<clus scale="   47.249">  1  5  2 -1</clus>
<clus scale="  376.737">  1  3  2 -1</clus>
<clus scale="  376.737">  1  3  2 -1</clus>
</clustering>
</event>
<event>
 4   0  0.3464723E-02  0.3615234E+03  0.7816531E-02  0.1057982E+00
       21   -1    0    0  503  502  0.00000000000E+00  0.00000000000E+00  0.53672641214E+03  0.53672641214E+03  0.00000000000E+00 0.  1.
       21   -1    0    0  501  503  0.00000000000E+00  0.00000000000E+00 -0.26077783253E+03  0.26077783253E+03  0.00000000000E+00 0.  1.
  1000006    1    1    2  501    0  0.53453001538E+02  0.73088617156E+02  0.35370119449E+02  0.36324952124E+03  0.35000000000E+03 0.  0.
 -1000006    1    1    2    0  502 -0.53453001538E+02 -0.73088617156E+02  0.24057846015E+03  0.43425472343E+03  0.35000000000E+03 0.  0.
<scales pt_clust_1="13000.00000" pt_clust_2="13000.00000"></scales>
<clustering>
<clus scale="  361.523">  2  3  1 -1</clus>
<clus scale="  361.523">  1  3  2 -1</clus>
</clustering>
</event>
<event>
 5   1  0.3464723E-02  0.7031069E+03  0.7816531E-02  0.9711934E-01
       21   -1    0    0  501  502  0.00000000000E+00  0.00000000000E+00  0.82509231412E+03  0.82509231412E+03  0.00000000000E+00 0.  1.
       21   -1    0    0  504  503  0.00000000000E+00  0.00000000000E+00 -0.12301837503E+04  0.12301837503E+04  0.00000000000E+00 0. -1.
  1000006    1    1    2  501    0  0.14193297594E+03  0.58107526858E+03  0.46189991456E+03  0.83285350962E+03  0.35000000000E+03 0.  0.
 -1000006    1    1    2    0  503 -0.21892620061E+03 -0.63626701142E+03 -0.81890426709E+03  0.11161848368E+04  0.35000000000E+03 0.  0.
       21    1    1    2  504  502  0.76993224675E+02  0.55191742840E+02 -0.48087083666E+02  0.10623771806E+03  0.00000000000E+00 0. -1.
<scales pt_clust_1="13000.00000" pt_clust_2="13000.00000" pt_clust_3="94.73165"></scales>
<clustering>
<clus scale="   94.732">  2  5  1 -1</clus>
<clus scale="  703.107">  2  4  1 -1</clus>
<clus scale="  703.107">  1  3  2 -1</clus>
</clustering>
</event>
<event>
 4   0  0.3464723E-02  0.1265878E+04  0.7816531E-02  0.9057071E-01
       21   -1    0    0  501  502  0.00000000000E+00  0.00000000000E+00  0.98102288975E+03  0.98102288975E+03  0.00000000000E+00 0.  1.
       21   -1    0    0  502  503  0.00000000000E+00  0.00000000000E+00 -0.17555528396E+04  0.17555528396E+04  0.00000000000E+00 0. -1.
  1000006    1    1    2  501    0  0.42021265187E+03 -0.11416513147E+04 -0.26401215189E+02  0.12661530007E+04  0.35000000000E+03 0.  0.
 -1000006    1    1    2    0  503 -0.42021265187E+03  0.11416513147E+04 -0.74812873463E+03  0.14704227286E+04  0.35000000000E+03 0.  0.
<scales pt_clust_1="13000.00000" pt_clust_2="13000.00000"></scales>
<clustering>
<clus scale=" 1265.878">  1  3  2 -1</clus>
<clus scale=" 1265.878">  1  3  2 -1</clus>
</clustering>
</event>
<event>
 5   1  0.3464723E-02  0.4893490E+03  0.7816531E-02  0.1016597E+00
       21   -1    0    0  501  502  0.00000000000E+00  0.00000000000E+00  0.10269073278E+04  0.10269073278E+04  0.00000000000E+00 0. -1.
       21   -1    0    0  502  503  0.00000000000E+00  0.00000000000E+00 -0.30420454657E+03  0.30420454657E+03  0.00000000000E+00 0.  1.
  1000006    1    1    2  501    0  0.34505125598E+03 -0.67575893778E+02  0.48616778499E+03  0.69461211179E+03  0.35000000000E+03 0.  0.
 -1000006    1    1    2    0  504 -0.32811407274E+03  0.37486346934E+02  0.29799247993E+03  0.56600670405E+03  0.35000000000E+03 0.  0.
       21    1    1    2  504  503 -0.16937183244E+02  0.30089546843E+02 -0.61457483675E+02  0.70493058560E+02  0.00000000000E+00 0.  1.
<scales pt_clust_1="13000.00000" pt_clust_2="13000.00000" pt_clust_3="34.52896"></scales>
<clustering>
<clus scale="   34.529">  2  5  1 -1</clus>
<clus scale="  489.349">  1  3  2 -1</clus>
<clus scale="  489.349">  1  3  2 -1</clus>
</clustering>
</event>
<event>
 5   1  0.3464723E-02  0.4046491E+03  0.7816531E-02  0.1042182E+00
       21   -1    0    0  501  502  0.00000000000E+00  0.00000000000E+00  0.11715099392E+04  0.11715099392E+04  0.00000000000E+00 0. -1.
       21   -1    0    0  504  503  0.00000000000E+00  0.00000000000E+00 -0.21028352561E+03  0.21028352561E+03  0.00000000000E+00 0. -1.
  1000006    1    1    2  501    0  0.24484428899E+03  0.97311599284E+02  0.34282691725E+03  0.55628101567E+03  0.35000000000E+03 0.  0.
 -1000006    1    1    2    0  503 -0.13435442851E+03 -0.70041555865E+02  0.29346959961E+03  0.48122898697E+03  0.35000000000E+03 0.  0.
       21    1    1    2  504  502 -0.11048986048E+03 -0.27270043420E+02  0.32492989675E+03  0.34428346220E+03  0.00000000000E+00 0. -1.
<scales pt_clust_1="13000.00000" pt_clust_2="13000.00000" pt_clust_3="113.80538"></scales>
<clustering>
<clus scale="  113.805">  1  5  2 -1</clus>
<clus scale="  404.649">  2  4  1 -1</clus>
<clus scale="  404.649">  1  3  2 -1</clus>
</clustering>
</event>
<event>
 5   1  0.3464723E-02  0.4253468E+03  0.7816531E-02  0.1035340E+00
       21   -1    0    0  501  502  0.00000000000E+00  0.00000000000E+00  0.14893018752E+04  0.14893018752E+04  0.00000000000E+00 0.  1.
       21   -1    0    0  504  503  0.00000000000E+00  0.00000000000E+00 -0.17186750290E+03  0.17186750290E+03  0.00000000000E+00 0.  1.
  1000006    1    1    2  501    0  0.24728097727E+03 -0.12922681456E+03  0.48517811330E+03  0.66011003094E+03  0.35000000000E+03 0.  0.
 -1000006    1    1    2    0  503 -0.17328231877E+03  0.11677652874E+03  0.43250665661E+03  0.59432779480E+03  0.35000000000E+03 0.  0.
       21    1    1    2  504  502 -0.73998658502E+02  0.12450285821E+02  0.39974960241E+03  0.40673155239E+03  0.00000000000E+00 0.  1.
<scales pt_clust_1="13000.00000" pt_clust_2="13000.00000" pt_clust_3="75.03873"></scales>
<clustering>
<clus scale="   75.039">  1  5  2 -1</clus>
<clus scale="  425.347">  1  3  2 -1</clus>
<clus scale="  425.347">  1  3  2 -1</clus>
</clustering>
</event>
<event>
 6   2  0.3464723E-02  0.1295827E+04  0.7816531E-02  0.9032881E-01
       21   -1    0    0  503  502  0.00000000000E+00  0.00000000000E+00  0.16209622958E+04  0.16209622958E+04  0.00000000000E+00 0. -1.
       21   -1    0    0  505  503  0.00000000000E+00  0.00000000000E+00 -0.15978217976E+04  0.15978217976E+04  0.00000000000E+00 0.  1.
  1000006    1    1    2  501    0 -0.12259537768E+04 -0.67010497533E+02 -0.65556530677E+03  0.14351720946E+04  0.35000000000E+03 0.  0.
 -1000006    1    1    2    0  504  0.12261069981E+04  0.13141573198E+03  0.39226065864E+03  0.13405136663E+04  0.35000000000E+03 0.  0.
       21    1    1    2  504  502  0.48080709232E+02 -0.15625160830E+02  0.34756336296E+03  0.35122100097E+03  0.00000000000E+00 0. -1.
       21    1    1    2  505  501 -0.48233930517E+02 -0.48780073616E+02 -0.61118216626E+02  0.91877331473E+02  0.00000000000E+00 0. -1.
<scales pt_clust_1="13000.00000" pt_clust_2="13000.00000" pt_clust_3="50.55591" pt_clust_4="68.32803"></scales>
<clustering>
<clus scale="   50.556">  1  5  2 -1</clus>
<clus scale="   68.328">  2  6  1 -1</clus>
<clus scale=" 1295.827">  1  4  2 -1</clus>
<clus scale=" 1295.827">  1  3  2 -1</clus>
</clustering>
</event>
<event>
 6   2  0.3464723E-02  0.3705111E+03  0.7816531E-02  0.1054498E+00
       21   -1    0    0  504  502  0.00000000000E+00  0.00000000000E+00  0.45829591307E+03  0.45829591307E+03  0.00000000000E+00 0.  1.
       21   -1    0    0  501  503  0.00000000000E+00  0.00000000000E+00 -0.13326496130E+04  0.13326496130E+04  0.00000000000E+00 0.  1.
  1000006    1    1    2  501    0  0.73701642093E+02 -0.43965009190E+02 -0.72947710833E+03  0.81363487244E+03  0.35000000000E+03 0.  0.
 -1000006    1    1    2    0  505 -0.13890804807E+03  0.11503603538E+03  0.62440922510E+02  0.39865725136E+03  0.35000000000E+03 0.  0.
       21    1    1    2  504  503  0.13952126333E+02 -0.33751714237E+02 -0.38668729367E+03  0.38840816563E+03  0.00000000000E+00 0. -1.
       21    1    1    2  505  502  0.51254279645E+02 -0.37319311956E+02  0.17936977958E+03  0.19024523662E+03  0.00000000000E+00 0.  1.
<scales pt_clust_1="13000.00000" pt_clust_2="13000.00000" pt_clust_3="36.52177" pt_clust_4="63.58065"></scales>
<clustering>
<clus scale="   36.522">  2  5  1 -1</clus>
<clus scale="   63.581">  1  6  2 -1</clus>
<clus scale="  370.511">  1  4  2 -1</clus>
<clus scale="  370.511">  1  3  2 -1</clus>
</clustering>
</event>
<event>
 6   2  0.3464723E-02  0.5406936E+03  0.7816531E-02  0.1014935E+00
       21   -1    0    0  501  503  0.00000000000E+00  0.00000000000E+00  0.62920834093E+03  0.62920834093E+03  0.00000000000E+00 0. -1.
        1   -1    0    0  504    0  0.00000000000E+00  0.00000000000E+00 -0.10285247944E+04  0.10285247944E+04  0.00000000000E+00 0. -1.
  1000006    1    1    2  501    0  0.14450779686E+03  0.34303272120E+02  0.24586263348E+03  0.45277770746E+03  0.35000000000E+03 0.  0.
 -1000006    1    1    2    0  502  0.21304086312E+02 -0.41618069916E+03 -0.43882589895E+03  0.69909113000E+03  0.35000000000E+03 0.  0.
       21    1    1    2  504  503  0.34666990397E+02  0.52038197727E+01 -0.18563834351E+02  0.39667315377E+02  0.00000000000E+00 0. -1.
        1    1    1    2  502    0 -0.20047887357E+03  0.37667360727E+03 -0.18778935368E+03  0.46619698252E+03  0.00000000000E+00 0. -1.
<scales pt_clust_1="13000.00000" pt_clust_2="13000.00000" pt_clust_3="35.05538" pt_clust_4="412.12834"></scales>
<clustering>
<clus scale="   35.055">  2  5  1 -1</clus>
<clus scale="  381.637">  1  3  2 -1</clus>
<clus scale="  412.128">  2  6  1 -1</clus>
<clus scale="  540.694">  1  3  2 -1</clus>
</clustering>
</event>
<event>
 6   2  0.3464723E-02  0.3981811E+03  0.7816531E-02  0.1044411E+00
       21   -1    0    0  504  502  0.00000000000E+00  0.00000000000E+00  0.33178226570E+03  0.33178226570E+03  0.00000000000E+00 0. -1.
       21   -1    0    0  501  503  0.00000000000E+00  0.00000000000E+00 -0.93664685569E+03  0.93664685569E+03  0.00000000000E+00 0. -1.
  1000006    1    1    2  501    0  0.12700843791E+02  0.33403655020E+03 -0.26638308211E+03  0.55245060842E+03  0.35000000000E+03 0.  0.
 -1000006    1    1    2    0  502  0.51625609798E+02 -0.87576712779E+02 -0.16466340096E+03  0.39993614468E+03  0.35000000000E+03 0.  0.
       21    1    1    2  504  505 -0.10803639959E+02 -0.14498869317E+03 -0.70191179103E+02  0.16144733323E+03  0.00000000000E+00 0. -1.
       21    1    1    2  505  503 -0.53522813629E+02 -0.10147114425E+03 -0.10362692781E+03  0.15459503505E+03  0.00000000000E+00 0. -1.
<scales pt_clust_1="13000.00000" pt_clust_2="13000.00000" pt_clust_3="263.95084" pt_clust_4="61.47646"></scales>
<clustering>
<clus scale="   61.476">  5  6 -1 -1</clus>
<clus scale="  263.951">  2  5  1 -1</clus>
<clus scale="  398.181">  2  3  1 -1</clus>
<clus scale="  398.181">  1  3  2 -1</clus>
</clustering>
</event>
<event>
 6   2  0.3464723E-02  0.6500145E+03  0.7816531E-02  0.9955449E-01
       -1   -1    0    0    0  501  0.00000000000E+00  0.00000000000E+00  0.11678625762E+04  0.11678625762E+04  0.00000000000E+00 0. -1.
       21   -1    0    0  502  503  0.00000000000E+00  0.00000000000E+00 -0.11297471172E+04  0.11297471172E+04  0.00000000000E+00 0.  1.
  1000006    1    1    2  502    0 -0.11132216428E+03 -0.18424107536E+03 -0.16037802166E+03  0.44108786873E+03  0.35000000000E+03 0.  0.
 -1000006    1    1    2    0  501  0.37292469530E+03  0.57055051245E+03 -0.49205567445E+03  0.91061490345E+03  0.35000000000E+03 0.  0.
       21    1    1    2  504  503  0.50411393412E+02  0.43107967937E+02 -0.98900018514E+01  0.67062788654E+02  0.00000000000E+00 0.  1.
       -1    1    1    2    0  504 -0.31201392444E+03 -0.42941740502E+03  0.70043915698E+03  0.87884413260E+03  0.00000000000E+00 0. -1.
<scales pt_clust_1="13000.00000" pt_clust_2="13000.00000" pt_clust_3="66.32952" pt_clust_4="547.73979"></scales>
<clustering>
<clus scale="   66.330">  2  5  1 -1</clus>
<clus scale="  402.121">  2  3  1 -1</clus>
<clus scale="  547.740">  1  6  2 -1</clus>
<clus scale="  650.015">  2  3  1 -1</clus>
</clustering>
</event>
<event>
 5   1  0.3464723E-02  0.3826785E+03  0.7816531E-02  0.1049948E+00
       21   -1    0    0  501  503  0.00000000000E+00  0.00000000000E+00  0.24936025449E+03  0.24936025449E+03  0.00000000000E+00 0. -1.
        1   -1    0    0  503    0  0.00000000000E+00  0.00000000000E+00 -0.30726080621E+04  0.30726080621E+04  0.00000000000E+00 0. -1.
  1000006    1    1    2  501    0  0.13359353763E+03  0.93315596120E+02 -0.59966543408E+02  0.39070579738E+03  0.35000000000E+03 0.  0.
 -1000006    1    1    2    0  502 -0.13111222358E+03 -0.53512089926E+02 -0.34131956795E+03  0.50897250064E+03  0.35000000000E+03 0.  0.
        1    1    1    2  502    0 -0.24813140491E+01 -0.39803506194E+02 -0.24219616963E+04  0.24222900186E+04  0.00000000000E+00 0. -1.
<scales pt_clust_1="13000.00000" pt_clust_2="13000.00000" pt_clust_3="39.88077"></scales>
<clustering>
<clus scale="   39.881">  2  5  1 -1</clus>
<clus scale="  382.679">  2  4  1 -1</clus>
<clus scale="  382.679">  1  3  2 -1</clus>
</clustering>
</event>
<event>
 6   2  0.3464723E-02  0.3706269E+03  0.7816531E-02  0.1054454E+00
        1   -1    0    0  504    0  0.00000000000E+00  0.00000000000E+00  0.13702416668E+04  0.13702416668E+04  0.00000000000E+00 0. -1.
       21   -1    0    0  501  503  0.00000000000E+00  0.00000000000E+00 -0.13618537771E+04  0.13618537771E+04  0.00000000000E+00 0. -1.
  1000006    1    1    2  501    0  0.15182510899E+03 -0.14517890438E+02 -0.91956919828E+03  0.99567521978E+03  0.35000000000E+03 0.  0.
 -1000006    1    1    2    0  502 -0.25694675546E+02  0.12076400498E+03 -0.26919391933E+03  0.45848612570E+03  0.35000000000E+03 0.  0.
       21    1    1    2  504  503 -0.22078445235E+02 -0.48555713274E+02 -0.18513778578E+02  0.56461270202E+02  0.00000000000E+00 0. -1.
        1    1    1    2  502    0 -0.10405198821E+03 -0.57690401267E+02  0.12156647859E+04  0.12214728283E+04  0.00000000000E+00 0. -1.
<scales pt_clust_1="13000.00000" pt_clust_2="13000.00000" pt_clust_3="53.33962" pt_clust_4="119.06877"></scales>
<clustering>
<clus scale="   53.340">  2  5  1 -1</clus>
<clus scale="  119.069">  1  6  2 -1</clus>
<clus scale="  370.627">  1  4  2 -1</clus>
<clus scale="  370.627">  2  3  1 -1</clus>
</clustering>
</event>
<event>
 5   1  0.3464723E-02  0.4534182E+03  0.7816531E-02  0.1026708E+00
       21   -1    0    0  503  502  0.00000000000E+00  0.00000000000E+00  0.10749950961E+04  0.10749950961E+04  0.00000000000E+00 0.  1.
       21   -1    0    0  504  503  0.00000000000E+00  0.00000000000E+00 -0.66577847114E+03  0.66577847114E+03  0.00000000000E+00 0.  1.
  1000006    1    1    2  501    0 -0.31679092916E+03 -0.35824616162E+03  0.44431537842E+03  0.74068411662E+03  0.35000000000E+03 0.  0.
 -1000006    1    1    2    0  502  0.20035897768E+03  0.13994251652E+01  0.29544570869E+03  0.49993384073E+03  0.35000000000E+03 0.  0.
       21    1    1    2  504  501  0.11643195148E+03  0.35684673645E+03 -0.33054446214E+03  0.50015560988E+03  0.00000000000E+00 0.  1.
<scales pt_clust_1="13000.00000" pt_clust_2="13000.00000" pt_clust_3="375.36115"></scales>
<clustering>
<clus scale="  375.361">  2  5  1 -1</clus>
<clus scale="  453.418">  2  3  1 -1</clus>
<clus scale="  453.418">  1  3  2 -1</clus>
</clustering>
</event>
<event>
 5   1  0.3464723E-02  0.3883079E+03  0.7816531E-02  0.1047905E+00
       21   -1    0    0  501  502  0.00000000000E+00  0.00000000000E+00  0.11285209945E+04  0.11285209945E+04  0.00000000000E+00 0. -1.
       21   -1    0    0  504  503  0.00000000000E+00  0.00000000000E+00 -0.50959114402E+03  0.50959114402E+03  0.00000000000E+00 0. -1.
  1000006    1    1    2  501    0  0.62581212794E+02  0.19067605365E+03  0.25202483355E+03  0.47569978175E+03  0.35000000000E+03 0.  0.
 -1000006    1    1    2    0  503 -0.61144329893E+02 -0.14780776800E+03 -0.30383176941E+03  0.49030552665E+03  0.35000000000E+03 0.  0.
       21    1    1    2  504  502 -0.14368829009E+01 -0.42868285649E+02  0.67073678637E+03  0.67210683016E+03  0.00000000000E+00 0. -1.
<scales pt_clust_1="13000.00000" pt_clust_2="13000.00000" pt_clust_3="42.89236"></scales>
<clustering>
<clus scale="   42.892">  1  5  2 -1</clus>
<clus scale="  388.308">  1  3  2 -1</clus>
<clus scale="  388.308">  1  3  2 -1</clus>
</clustering>
</event>
<event>
 6   2  0.3464723E-02  0.4647080E+03  0.7816531E-02  0.1023425E+00
       21   -1    0    0  503  502  0.00000000000E+00  0.00000000000E+00  0.58360043233E+03  0.58360043233E+03  0.00000000000E+00 0.  1.
       21   -1    0    0  504  503  0.00000000000E+00  0.00000000000E+00 -0.73493478055E+03  0.73493478055E+03  0.00000000000E+00 0. -1.
  1000006    1    1    2  501    0 -0.27207333340E+03 -0.23935858833E+02 -0.20355064808E+02  0.44442226851E+03  0.35000000000E+03 0.  0.
 -1000006    1    1    2    0  502  0.31546306956E+03  0.10909432073E+03  0.16411909565E+03  0.51073828585E+03  0.35000000000E+03 0.  0.
       21    1    1    2  504  505  0.71960083016E+02 -0.10005929992E+02 -0.12458184871E+03  0.14421861603E+03  0.00000000000E+00 0. -1.
       21    1    1    2  505  501 -0.11534981918E+03 -0.75152531908E+02 -0.17051653036E+03  0.21915604249E+03  0.00000000000E+00 0. -1.
<scales pt_clust_1="13000.00000" pt_clust_2="13000.00000" pt_clust_3="72.65241" pt_clust_4="120.87585"></scales>
<clustering>
<clus scale="   72.652">  2  5  1 -1</clus>
<clus scale="  120.876">  2  6  1 -1</clus>
<clus scale="  464.708">  2  3  1 -1</clus>
<clus scale="  464.708">  1  3  2 -1</clus>
</clustering>
</event>
<event>
 5   1  0.3464723E-02  0.3688392E+03  0.7816531E-02  0.1055138E+00
       21   -1    0    0  501  503  0.00000000000E+00  0.00000000000E+00  0.14492800026E+03  0.14492800026E+03  0.00000000000E+00 0.  1.
       -2   -1    0    0    0  501  0.00000000000E+00  0.00000000000E+00 -0.34641502317E+04  0.34641502317E+04  0.00000000000E+00 0.  1.
  1000006    1    1    2  502    0 -0.12549350907E+03 -0.35602272198E+02 -0.73455555889E+03  0.82406796546E+03  0.35000000000E+03 0.  0.
 -1000006    1    1    2    0  503  0.20780415774E+02  0.13435272240E+03 -0.26190986456E+03  0.45779827091E+03  0.35000000000E+03 0.  0.
       -2    1    1    2    0  502  0.10471309330E+03 -0.98750450199E+02 -0.23227568080E+04  0.23272119956E+04  0.00000000000E+00 0.  1.
<scales pt_clust_1="13000.00000" pt_clust_2="13000.00000" pt_clust_3="143.93222"></scales>
<clustering>
<clus scale="  143.932">  2  5  1 -1</clus>
<clus scale="  368.839">  2  3  1 -1</clus>
<clus scale="  368.839">  1  3  2 -1</clus>
</clustering>
</event>
<event>
 6   2  0.3464723E-02  0.3623521E+03  0.7816531E-02  0.1057656E+00
       21   -1    0    0  501  502  0.00000000000E+00  0.00000000000E+00  0.50816598066E+03  0.50816598066E+03  0.00000000000E+00 0.  1.
       21   -1    0    0  505  503  0.00000000000E+00  0.00000000000E+00 -0.12730455126E+04  0.12730455126E+04  0.00000000000E+00 0.  1.
  1000006    1    1    2  501    0 -0.80503120454E+02 -0.50356664700E+02  0.25987673399E+03  0.44615295914E+03  0.35000000000E+03 0.  0.
 -1000006    1    1    2    0  503  0.14572390436E+03 -0.21013246729E+03 -0.23610925619E+03  0.49359770154E+03  0.35000000000E+03 0.  0.
       21    1    1    2  504  502 -0.33908349675E+02  0.24527446678E+03 -0.59103123506E+03  0.64080204513E+03  0.00000000000E+00 0.  1.
       21    1    1    2  505  504 -0.31312434229E+02  0.15214665210E+02 -0.19761577470E+03  0.20065878746E+03  0.00000000000E+00 0. -1.
<scales pt_clust_1="13000.00000" pt_clust_2="13000.00000" pt_clust_3="259.24204" pt_clust_4="34.81314"></scales>
<clustering>
<clus scale="   34.813">  2  6  1 -1</clus>
<clus scale="  259.242">  2  5  1 -1</clus>
<clus scale="  362.352">  2  4  1 -1</clus>
<clus scale="  362.352">  1  3  2 -1</clus>
</clustering>
</event>
<event>
 6   2  0.3464723E-02  0.6432845E+03  0.7816531E-02  0.9819462E-01
       21   -1    0    0  504  502  0.00000000000E+00  0.00000000000E+00  0.64952921833E+03  0.64952921833E+03  0.00000000000E+00 0.  1.
       21   -1    0    0  501  503  0.00000000000E+00  0.00000000000E+00 -0.11790460542E+04  0.11790460542E+04  0.00000000000E+00 0. -1.
  1000006    1    1    2  501    0 -0.43873982864E+03  0.28375190985E+03 -0.56099274021E+03  0.84274589180E+03  0.35000000000E+03 0.  0.
 -1000006    1    1    2    0  505  0.41879416033E+03 -0.39537620530E+03 -0.21051821733E+03  0.70606572801E+03  0.35000000000E+03 0.  0.
       21    1    1    2  504  503  0.21338404343E+02  0.28914916614E+02  0.16437915816E+02  0.39517147912E+02  0.00000000000E+00 0.  1.
       21    1    1    2  505  502 -0.13927360375E+01  0.82709378839E+02  0.22555620586E+03  0.24024650479E+03  0.00000000000E+00 0.  1.
<scales pt_clust_1="13000.00000" pt_clust_2="13000.00000" pt_clust_3="35.93605" pt_clust_4="93.77683"></scales>
<clustering>
<clus scale="   35.936">  1  5  2 -1</clus>
<clus scale="   93.777">  1  6  2 -1</clus>
<clus scale="  643.285">  1  4  2 -1</clus>
<clus scale="  643.285">  1  3  2 -1</clus>
</clustering>
</event>
<event>
 5   1  0.3464723E-02  0.4122522E+03  0.7816531E-02  0.1039618E+00
        1   -1    0    0  501    0  0.00000000000E+00  0.00000000000E+00  0.16368384192E+04  0.16368384192E+04  0.00000000000E+00 0. -1.
       21   -1    0    0  502  503  0.00000000000E+00  0.00000000000E+00 -0.18451597688E+03  0.18451597688E+03  0.00000000000E+00 0. -1.
  1000006    1    1    2  501    0 -0.18569831331E+03 -0.54694937617E+02  0.13994514561E+03  0.42374525785E+03  0.35000000000E+03 0.  0.
 -1000006    1    1    2    0  503  0.21641034302E+03  0.55395761676E+02  0.12996357192E+04  0.13643515418E+04  0.35000000000E+03 0.  0.
        1    1    1    2  502    0 -0.30712029706E+02 -0.70082405861E+00  0.12741577509E+02  0.33257596432E+02  0.00000000000E+00 0. -1.
<scales pt_clust_1="13000.00000" pt_clust_2="13000.00000" pt_clust_3="30.72002"></scales>
<clustering>
<clus scale="   30.720">  2  5  1 -1</clus>
<clus scale="  869.743">  3  4 -1 -1</clus>
<clus scale="  412.252">  2  3  1 -1</clus>
</clustering>
</event>
<event>
 6   2  0.3464723E-02  0.5074686E+03  0.7816531E-02  0.1011848E+00
       21   -1    0    0  505  502  0.00000000000E+00  0.00000000000E+00  0.75527455644E+03  0.75527455644E+03  0.00000000000E+00 0. -1.
       21   -1    0    0  504  503  0.00000000000E+00  0.00000000000E+00 -0.94291064586E+03  0.94291064586E+03  0.00000000000E+00 0. -1.
  1000006    1    1    2  501    0  0.19854933293E+03  0.30094794700E+03 -0.71697873641E+02  0.50757471322E+03  0.35000000000E+03 0.  0.
 -1000006    1    1    2    0  502 -0.26896611867E+03 -0.25860999529E+03  0.40020558110E+03  0.64952783605E+03  0.35000000000E+03 0.  0.
       21    1    1    2  504  501  0.68613799064E+02 -0.62479047329E+01 -0.49383052348E+03  0.49861355342E+03  0.00000000000E+00 0. -1.
       21    1    1    2  505  503  0.18029866739E+01 -0.36090046980E+02 -0.22313273403E+02  0.42469099613E+02  0.00000000000E+00 0. -1.
<scales pt_clust_1="13000.00000" pt_clust_2="13000.00000" pt_clust_3="74.26525" pt_clust_4="36.13506"></scales>
<clustering>
<clus scale="   36.135">  2  6  1 -1</clus>
<clus scale="   74.265">  2  5  1 -1</clus>
<clus scale="  507.469">  1  4  2 -1</clus>
<clus scale="  507.469">  1  3  2 -1</clus>
</clustering>
</event>
<event>
 6   2  0.3464723E-02  0.3985343E+03  0.7816531E-02  0.1044288E+00
       21   -1    0    0  504  502  0.00000000000E+00  0.00000000000E+00  0.21637549623E+04  0.21637549623E+04  0.00000000000E+00 0. -1.
       21   -1    0    0  501  503  0.00000000000E+00  0.00000000000E+00 -0.48087057313E+03  0.48087057313E+03  0.00000000000E+00 0.  1.
  1000006    1    1    2  501    0 -0.13201528165E+03  0.12979231743E+03  0.30944796848E+02  0.39715445447E+03  0.35000000000E+03 0.  0.
 -1000006    1    1    2    0  505 -0.30298003284E+02 -0.17578519367E+03  0.12261457793E+04  0.12875371355E+04  0.35000000000E+03 0.  0.
       21    1    1    2  504  503  0.30960820349E+03  0.45487750268E+02 -0.16310930014E+03  0.35288952788E+03  0.00000000000E+00 0.  1.
       21    1    1    2  505  502 -0.14729491855E+03  0.50512597277E+00  0.58890311316E+03  0.60704441754E+03  0.00000000000E+00 0. -1.
<scales pt_clust_1="13000.00000" pt_clust_2="13000.00000" pt_clust_3="304.10763" pt_clust_4="147.29578"></scales>
<clustering>
<clus scale="  147.296">  1  6  2 -1</clus>
<clus scale="  304.108">  2  5  1 -1</clus>
<clus scale="  398.534">  1  4  2 -1</clus>
<clus scale="  398.534">  1  3  2 -1</clus>
</clustering>
</event>
<event>
 6   2  0.3464723E-02  0.3526510E+03  0.7816531E-02  0.1061532E+00
       21   -1    0    0  501  502  0.00000000000E+00  0.00000000000E+00  0.11948505480E+04  0.11948505480E+04  0.00000000000E+00 0.  1.
       21   -1    0    0  504  503  0.00000000000E+00  0.00000000000E+00 -0.25432534964E+03  0.25432534964E+03  0.00000000000E+00 0.  1.
  1000006    1    1    2  501    0  0.29732125755E+02 -0.38856225190E+02  0.32240029586E+03  0.47836780442E+03  0.35000000000E+03 0.  0.
 -1000006    1    1    2    0  505 -0.27484816152E+02  0.56749080351E+02  0.17777379313E+03  0.39759199535E+03  0.35000000000E+03 0.  0.
       21    1    1    2  504  502 -0.10930079610E+02  0.75218045814E+02  0.46922798929E+03  0.47534421948E+03  0.00000000000E+00 0.  1.
       21    1    1    2  505  503  0.86827700079E+01 -0.93110900975E+02 -0.28876879970E+02  0.97871878352E+02  0.00000000000E+00 0.  1.
<scales pt_clust_1="13000.00000" pt_clust_2="13000.00000" pt_clust_3="76.00803" pt_clust_4="89.89097"></scales>
<clustering>
<clus scale="   76.008">  1  5  2 -1</clus>
<clus scale="   89.891">  2  6  1 -1</clus>
<clus scale="  352.651">  1  3  2 -1</clus>
<clus scale="  352.651">  1  3  2 -1</clus>
</clustering>
</event>
<event>
 6   2  0.3464723E-02  0.4059020E+03  0.7816531E-02  0.1041755E+00
       21   -1    0    0  505  502  0.00000000000E+00  0.00000000000E+00  0.71537130937E+03  0.71537130937E+03  0.00000000000E+00 0. -1.
       21   -1    0    0  501  503  0.00000000000E+00  0.00000000000E+00 -0.44159941414E+03  0.44159941414E+03  0.00000000000E+00 0. -1.
  1000006    1    1    2  501    0  0.50085965699E+02  0.15668086311E+03 -0.13588113006E+03  0.40990386474E+03  0.35000000000E+03 0.  0.
 -1000006    1    1    2    0  502 -0.19154951599E+03 -0.17111672181E+03  0.33839321170E+03  0.55043811212E+03  0.35000000000E+03 0.  0.
       21    1    1    2  504  503  0.10552933315E+03 -0.16844886365E+02 -0.46955974111E+01  0.10696840181E+03  0.00000000000E+00 0. -1.
       21    1    1    2  505  504  0.35934217139E+02  0.31280745059E+02  0.75955411008E+02  0.89660344825E+02  0.00000000000E+00 0.  1.
<scales pt_clust_1="13000.00000" pt_clust_2="13000.00000" pt_clust_3="109.37522" pt_clust_4="47.64192"></scales>
<clustering>
<clus scale="   47.642">  1  6  2 -1</clus>
<clus scale="  109.375">  2  5  1 -1</clus>
<clus scale="  405.902">  1  4  2 -1</clus>
<clus scale="  405.902">  1  3  2 -1</clus>
</clustering>
</event>
<event>
 5   1  0.3464723E-02  0.3577344E+03  0.7816531E-02  0.1059485E+00
       21   -1    0    0  501  503  0.00000000000E+00  0.00000000000E+00  0.28512678247E+03  0.28512678247E+03  0.00000000000E+00 0. -1.
       -1   -1    0    0    0  501  0.00000000000E+00  0.00000000000E+00 -0.13108101014E+04  0.13108101014E+04  0.00000000000E+00 0.  1.
  1000006    1    1    2  502    0  0.50421871777E+01  0.47405317091E+02 -0.32894704310E+03  0.48267882169E+03  0.35000000000E+03 0.  0.
 -1000006    1    1    2    0  503  0.12774863203E+02 -0.83632403833E+02  0.51665978086E+02  0.36376771351E+03  0.35000000000E+03 0.  0.
       -1    1    1    2    0  502 -0.17817050381E+02  0.36227086742E+02 -0.74840225393E+03  0.74949034870E+03  0.00000000000E+00 0.  1.
<scales pt_clust_1="13000.00000" pt_clust_2="13000.00000" pt_clust_3="40.37139"></scales>
<clustering>
<clus scale="   40.371">  2  5  1 -1</clus>
<clus scale="  357.734">  2  3  1 -1</clus>
<clus scale="  357.734">  1  3  2 -1</clus>
</clustering>
</event>
<event>
 5   1  0.3464723E-02  0.3597857E+03  0.7816531E-02  0.1058669E+00
       21   -1    0    0  501  502  0.00000000000E+00  0.00000000000E+00  0.14735079036E+03  0.14735079036E+03  0.00000000000E+00 0. -1.
       21   -1    0    0  504  503  0.00000000000E+00  0.00000000000E+00 -0.12125915112E+04  0.12125915112E+04  0.00000000000E+00 0. -1.
  1000006    1    1    2  501    0 -0.69609592332E+02  0.68304177501E+02 -0.22534517334E+03  0.42754111283E+03  0.35000000000E+03 0.  0.
 -1000006    1    1    2    0  503  0.34810208060E+02 -0.38205581220E+02 -0.68722990963E+03  0.77295301649E+03  0.35000000000E+03 0.  0.
       21    1    1    2  504  502  0.34799384272E+02 -0.30098596281E+02 -0.15266563782E+03  0.15944817219E+03  0.00000000000E+00 0. -1.
<scales pt_clust_1="13000.00000" pt_clust_2="13000.00000" pt_clust_3="46.01003"></scales>
<clustering>
<clus scale="   46.010">  2  5  1 -1</clus>
<clus scale="  359.786">  2  4  1 -1</clus>
<clus scale="  359.786">  1  3  2 -1</clus>
</clustering>
</event>
<event>
 4   0  0.3464723E-02  0.3612968E+03  0.7816531E-02  0.1058072E+00
       21   -1    0    0  501  502  0.00000000000E+00  0.00000000000E+00  0.11498190678E+03  0.11498190678E+03  0.00000000000E+00 0.  1.
       21   -1    0    0  502  503  0.00000000000E+00  0.00000000000E+00 -0.11402880323E+04  0.11402880323E+04  0.00000000000E+00 0.  1.
  1000006    1    1    2  501    0  0.86716020145E+02  0.22709105168E+02 -0.47101232719E+03  0.59362276234E+03  0.35000000000E+03 0.  0.
 -1000006    1    1    2    0  503 -0.86716020145E+02 -0.22709105168E+02 -0.55429379835E+03  0.66164717674E+03  0.35000000000E+03 0.  0.
<scales pt_clust_1="13000.00000" pt_clust_2="13000.00000"></scales>
<clustering>
<clus scale="  361.297">  1  3  2 -1</clus>
<clus scale="  361.297">  1  3  2 -1</clus>
</clustering>
</event>
<event>
 6   2  0.3464723E-02  0.3744390E+03  0.7816531E-02  0.1053008E+00
       21   -1    0    0  501  503  0.00000000000E+00  0.00000000000E+00  0.10661715399E+04  0.10661715399E+04  0.00000000000E+00 0.  1.
        2   -1    0    0  504    0  0.00000000000E+00  0.00000000000E+00 -0.18508221823E+04  0.18508221823E+04  0.00000000000E+00 0.  1.
  1000006    1    1    2  501    0  0.91131307141E+02 -0.83282806594E+02  0.81029332253E+03  0.89124419188E+03  0.35000000000E+03 0.  0.
 -1000006    1    1    2    0  502 -0.28125535483E+03 -0.23796400334E+02 -0.16643150673E+03  0.47944790095E+03  0.35000000000E+03 0.  0.
       21    1    1    2  504  503  0.28138359378E+03 -0.12228662320E+03 -0.10540480026E+04  0.10977923013E+04  0.00000000000E+00 0.  1.
        2    1    1    2  502    0 -0.91259546096E+02  0.22936583013E+03 -0.37446445563E+03  0.44850932801E+03  0.00000000000E+00 0.  1.
<scales pt_clust_1="13000.00000" pt_clust_2="13000.00000" pt_clust_3="218.76276" pt_clust_4="246.85419"></scales>
<clustering>
<clus scale="  246.854">  2  6  1 -1</clus>
<clus scale="  218.763">  2  5  1 -1</clus>
<clus scale="  374.439">  1  3  2 -1</clus>
<clus scale="  374.439">  1  3  2 -1</clus>
</clustering>
</event>
<event>
 6   2  0.3464723E-02  0.4580587E+03  0.7816531E-02  0.1025346E+00
       21   -1    0    0  505  502  0.00000000000E+00  0.00000000000E+00  0.66907316274E+03  0.66907316274E+03  0.00000000000E+00 0. -1.
       21   -1    0    0  502  503  0.00000000000E+00  0.00000000000E+00 -0.69144320035E+03  0.69144320035E+03  0.00000000000E+00 0.  1.
  1000006    1    1    2  501    0 -0.22664026378E+03  0.81559835355E+02 -0.21946000996E+02  0.42544029295E+03  0.35000000000E+03 0.  0.
 -1000006    1    1    2    0  504  0.30280800244E+03 -0.16398397752E+03 -0.20780528945E+03  0.53316645576E+03  0.35000000000E+03 0.  0.
       21    1    1    2  504  503  0.83949737266E+01  0.52536351144E+02 -0.82668911725E+02  0.98309169161E+02  0.00000000000E+00 0. -1.
       21    1    1    2  505  501 -0.84562712391E+02  0.29887791020E+02  0.29005016455E+03  0.30360044522E+03  0.00000000000E+00 0. -1.
<scales pt_clust_1="13000.00000" pt_clust_2="13000.00000" pt_clust_3="53.20285" pt_clust_4="89.79916"></scales>
<clustering>
<clus scale="   53.203">  2  5  1 -1</clus>
<clus scale="   89.799">  1  6  2 -1</clus>
<clus scale="  458.059">  2  4  1 -1</clus>
<clus scale="  458.059">  1  3  2 -1</clus>
</clustering>
</event>
<event>
 5   1  0.3464723E-02  0.3963408E+03  0.7816531E-02  0.1045054E+00
       21   -1    0    0  504  502  0.00000000000E+00  0.00000000000E+00  0.44627747934E+03  0.44627747934E+03  0.00000000000E+00 0.  1.
       21   -1    0    0  502  503  0.00000000000E+00  0.00000000000E+00 -0.40778001816E+03  0.40778001816E+03  0.00000000000E+00 0.  1.
  1000006    1    1    2  501    0 -0.14544485293E+03 -0.11515630496E+03  0.87895373806E+01  0.39622270983E+03  0.35000000000E+03 0.  0.
 -1000006    1    1    2    0  503  0.12194153779E+03  0.14327026979E+03 -0.17891413431E+02  0.39776401486E+03  0.35000000000E+03 0.  0.
       21    1    1    2  504  501  0.23503315141E+02 -0.28113964827E+02  0.47599337232E+02  0.60070772809E+02  0.00000000000E+00 0.  1.
<scales pt_clust_1="13000.00000" pt_clust_2="13000.00000" pt_clust_3="36.64425"></scales>
<clustering>
<clus scale="   36.644">  1  5  2 -1</clus>
<clus scale="  396.341">  1  3  2 -1</clus>
<clus scale="  396.341">  1  3  2 -1</clus>
</clustering>
</event>
<event>
 6   2  0.3464723E-02  0.4792725E+03  0.7816531E-02  0.1019335E+00
       21   -1    0    0  503  502  0.00000000000E+00  0.00000000000E+00  0.13171817303E+04  0.13171817303E+04  0.00000000000E+00 0.  1.
       21   -1    0    0  505  503  0.00000000000E+00  0.00000000000E+00 -0.51411828996E+03  0.51411828996E+03  0.00000000000E+00 0.  1.
  1000006    1    1    2  501    0 -0.40508396365E+02 -0.32233870927E+03  0.17694397753E+03  0.50926647726E+03  0.35000000000E+03 0.  0.
 -1000006    1    1    2    0  502  0.14368435710E+03  0.30031446652E+03  0.88305084704E+03  0.10065350325E+04  0.35000000000E+03 0.  0.
       21    1    1    2  504  501 -0.59776702677E+02 -0.87646476799E+01 -0.79997161841E+01  0.60943159508E+02  0.00000000000E+00 0. -1.
       21    1    1    2  505  504 -0.43399258062E+02  0.30788890433E+02 -0.24893166801E+03  0.25455535098E+03  0.00000000000E+00 0.  1.
<scales pt_clust_1="13000.00000" pt_clust_2="13000.00000" pt_clust_3="65.64847" pt_clust_4="53.21138"></scales>
<clustering>
<clus scale="   53.211">  2  6  1 -1</clus>
<clus scale="   65.648">  2  5  1 -1</clus>
<clus scale="  479.273">  2  3  1 -1</clus>
<clus scale="  479.273">  1  3  2 -1</clus>
</clustering>
</event>
<event>
 5   1  0.3464723E-02  0.4576503E+03  0.7816531E-02  0.1025465E+00
       21   -1    0    0  504  502  0.00000000000E+00  0.00000000000E+00  0.22813546718E+03  0.22813546718E+03  0.00000000000E+00 0. -1.
       21   -1    0    0  501  503  0.00000000000E+00  0.00000000000E+00 -0.20086250779E+04  0.20086250779E+04  0.00000000000E+00 0. -1.
  1000006    1    1    2  501    0 -0.18859104851E+03  0.23463670314E+03 -0.16187107747E+04  0.16832544484E+04  0.35000000000E+03 0.  0.
 -1000006    1    1    2    0  502  0.10768125914E+03 -0.24729727836E+03 -0.10596410396E+03  0.45440025174E+03  0.35000000000E+03 0.  0.
       21    1    1    2  504  503  0.80909789377E+02  0.12660575213E+02 -0.55814732082E+02  0.99105844930E+02  0.00000000000E+00 0. -1.
<scales pt_clust_1="13000.00000" pt_clust_2="13000.00000" pt_clust_3="81.89435"></scales>
<clustering>
<clus scale="   81.894">  1  5  2 -1</clus>
<clus scale="  457.650">  2  3  1 -1</clus>
<clus scale="  457.650">  1  3  2 -1</clus>
</clustering>
</event>
<event>
 5   1  0.3464723E-02  0.3593201E+03  0.7816531E-02  0.1058853E+00
       21   -1    0    0  501  502  0.00000000000E+00  0.00000000000E+00  0.23573228525E+03  0.23573228525E+03  0.00000000000E+00 0. -1.
       21   -1    0    0  504  503  0.00000000000E+00  0.00000000000E+00 -0.11208183007E+04  0.11208183007E+04  0.00000000000E+00 0. -1.
  1000006    1    1    2  501    0 -0.82534563992E+02  0.51335467583E+02 -0.14608313750E+03  0.39151956215E+03  0.35000000000E+03 0.  0.
 -1000006    1    1    2    0  503  0.76074029326E+02 -0.15917979565E+02 -0.80979403335E+03  0.88561109775E+03  0.35000000000E+03 0.  0.
       21    1    1    2  504  502  0.64605346662E+01 -0.35417488018E+02  0.70791155414E+02  0.79419926030E+02  0.00000000000E+00 0. -1.
<scales pt_clust_1="13000.00000" pt_clust_2="13000.00000" pt_clust_3="36.00190"></scales>
<clustering>
<clus scale="   36.002">  1  5  2 -1</clus>
<clus scale="  359.320">  1  3  2 -1</clus>
<clus scale="  359.320">  1  3  2 -1</clus>
</clustering>
</event>
<event>
 6   2  0.3464723E-02  0.5120771E+03  0.7816531E-02  0.1010674E+00
       21   -1    0    0  501  503  0.00000000000E+00  0.00000000000E+00  0.36969051354E+03  0.36969051354E+03  0.00000000000E+00 0. -1.
        2   -1    0    0  504    0  0.00000000000E+00  0.00000000000E+00 -0.23939824059E+04  0.23939824059E+04  0.00000000000E+00 0.  1.
  1000006    1    1    2  501    0 -0.44642941929E+03 -0.13405857101E+03 -0.39565592494E+02  0.58423998748E+03  0.35000000000E+03 0.  0.
 -1000006    1    1    2    0  502  0.71065720467E+02  0.14940417046E+03 -0.82660758615E+03  0.91277162765E+03  0.35000000000E+03 0.  0.
       21    1    1    2  504  503  0.44768203635E+02 -0.13070309805E+03 -0.52818743363E+03  0.54595737649E+03  0.00000000000E+00 0.  1.
        2    1    1    2  502    0  0.33059549519E+03  0.11535749861E+03 -0.62993128012E+03  0.72070392784E+03  0.00000000000E+00 0.  1.
<scales pt_clust_1="13000.00000" pt_clust_2="13000.00000" pt_clust_3="138.15749" pt_clust_4="353.44519"></scales>
<clustering>
<clus scale="  138.157">  2  5  1 -1</clus>
<clus scale="  353.445">  2  6  1 -1</clus>
<clus scale="  512.077">  2  4  1 -1</clus>
<clus scale="  512.077">  1  3  2 -1</clus>
</clustering>
</event>
<event>
 4   0  0.3464723E-02  0.3511535E+03  0.7816531E-02  0.1062143E+00
       21   -1    0    0  501  502  0.00000000000E+00  0.00000000000E+00  0.26119180640E+04  0.26119180640E+04  0.00000000000E+00 0.  1.
       21   -1    0    0  502  503  0.00000000000E+00  0.00000000000E+00 -0.47765957697E+02  0.47765957697E+02  0.00000000000E+00 0.  1.
  1000006    1    1    2  501    0 -0.11974857112E+01  0.28413343044E+02  0.14255412928E+04  0.14681541914E+04  0.35000000000E+03 0.  0.
 -1000006    1    1    2    0  503  0.11974857112E+01 -0.28413343044E+02  0.11386108135E+04  0.11915298304E+04  0.35000000000E+03 0.  0.
<scales pt_clust_1="13000.00000" pt_clust_2="13000.00000"></scales>
<clustering>
<clus scale="  351.153">  1  3  2 -1</clus>
<clus scale="  351.153">  1  3  2 -1</clus>
</clustering>
</event>
<event>
 6   2  0.3464723E-02  0.4708716E+03  0.7816531E-02  0.1021675E+00
       21   -1    0    0  504  502  0.00000000000E+00  0.00000000000E+00  0.12330422984E+04  0.12330422984E+04  0.00000000000E+00 0.  1.
       21   -1    0    0  501  503  0.00000000000E+00  0.00000000000E+00 -0.41493231924E+03  0.41493231924E+03  0.00000000000E+00 0. -1.
  1000006    1    1    2  501    0  0.95477248040E+02 -0.32714993049E+03 -0.12200983279E+03  0.50351701184E+03  0.35000000000E+03 0.  0.
 -1000006    1    1    2    0  505 -0.11088015720E+03  0.26614955602E+03  0.53106617239E+03  0.69832748398E+03  0.35000000000E+03 0.  0.
       21    1    1    2  504  503  0.10932882920E+02  0.28774633127E+02 -0.46659867274E+01  0.31133243851E+02  0.00000000000E+00 0. -1.
       21    1    1    2  505  502  0.44700262404E+01  0.32225741343E+02  0.41371962629E+03  0.41499687796E+03  0.00000000000E+00 0.  1.
<scales pt_clust_1="13000.00000" pt_clust_2="13000.00000" pt_clust_3="30.78161" pt_clust_4="32.58255"></scales>
<clustering>
<clus scale="   30.782">  2  5  1 -1</clus>
<clus scale="   32.583">  1  6  2 -1</clus>
<clus scale="  470.872">  2  3  1 -1</clus>
<clus scale="  470.872">  1  3  2 -1</clus>
</clustering>
</event>
<event>
 5   1  0.3464723E-02  0.3878022E+03  0.7816531E-02  0.1048087E+00
       21   -1    0    0  503  502  0.00000000000E+00  0.00000000000E+00  0.33500328256E+03  0.33500328256E+03  0.00000000000E+00 0.  1.
       21   -1    0    0  504  503  0.00000000000E+00  0.00000000000E+00 -0.90324760239E+03  0.90324760239E+03  0.00000000000E+00 0.  1.
  1000006    1    1    2  501    0 -0.31751011737E+02  0.20816116498E+03 -0.20745598171E+03  0.45812354415E+03  0.35000000000E+03 0.  0.
 -1000006    1    1    2    0  502 -0.18169266808E+03 -0.89860276412E+02 -0.87641855674E+02  0.41384561104E+03  0.35000000000E+03 0.  0.
       21    1    1    2  504  501  0.21344367982E+03 -0.11830088857E+03 -0.27314648245E+03  0.36628172977E+03  0.00000000000E+00 0.  1.
<scales pt_clust_1="13000.00000" pt_clust_2="13000.00000" pt_clust_3="244.03546"></scales>
<clustering>
<clus scale="  244.035">  2  5  1 -1</clus>
<clus scale="  387.802">  1  4  2 -1</clus>
<clus scale="  387.802">  1  3  2 -1</clus>
</clustering>
</event>
<event>
 4   0  0.3464723E-02  0.3919659E+03  0.7816531E-02  0.1046598E+00
       21   -1    0    0  501  502  0.00000000000E+00  0.00000000000E+00  0.96954025278E+02  0.96954025278E+02  0.00000000000E+00 0. -1.
       21   -1    0    0  502  503  0.00000000000E+00  0.00000000000E+00 -0.24595911756E+04  0.24595911756E+04  0.00000000000E+00 0. -1.
  1000006    1    1    2  501    0  0.17255042102E+03 -0.36927298564E+02 -0.41891696086E+03  0.57369738824E+03  0.35000000000E+03 0.  0.
 -1000006    1    1    2    0  503 -0.17255042102E+03  0.36927298564E+02 -0.19437201894E+04  0.19828478126E+04  0.35000000000E+03 0.  0.
<scales pt_clust_1="13000.00000" pt_clust_2="13000.00000"></scales>
<clustering>
<clus scale="  391.966">  1  3  2 -1</clus>
<clus scale="  391.966">  1  3  2 -1</clus>
</clustering>
</event>
<event>
 4   0  0.3464723E-02  0.6971544E+03  0.7816531E-02  0.9722111E-01
        1   -1    0    0  502    0  0.00000000000E+00  0.00000000000E+00  0.93120739896E+03  0.93120739896E+03  0.00000000000E+00 0.  1.
       -1   -1    0    0    0  501  0.00000000000E+00  0.00000000000E+00 -0.52731818125E+03  0.52731818125E+03  0.00000000000E+00 0. -1.
  1000006    1    1    2  502    0  0.43997612651E+03  0.41224418443E+03  0.12822140691E+03  0.70884764843E+03  0.35000000000E+03 0.  0.
 -1000006    1    1    2    0  501 -0.43997612651E+03 -0.41224418443E+03  0.27566781080E+03  0.74967793179E+03  0.35000000000E+03 0.  0.
<scales pt_clust_1="13000.00000" pt_clust_2="13000.00000"></scales>
<clustering>
<clus scale=" 1263.594">  3  4 -1 -1</clus>
<clus scale="  697.154">  1  3  2 -1</clus>
</clustering>
</event>
<event>
 5   1  0.3464723E-02  0.3636466E+03  0.7816531E-02  0.1057149E+00
       21   -1    0    0  503  502  0.00000000000E+00  0.00000000000E+00  0.10946138332E+03  0.10946138332E+03  0.00000000000E+00 0. -1.
       21   -1    0    0  504  503  0.00000000000E+00  0.00000000000E+00 -0.21684617161E+04  0.21684617161E+04  0.00000000000E+00 0. -1.
  1000006    1    1    2  501    0 -0.11315996871E+02 -0.15647329398E+03 -0.14022611891E+04  0.14537704034E+04  0.35000000000E+03 0.  0.
 -1000006    1    1    2    0  502  0.10765846791E+02  0.81462578057E+02 -0.32698614736E+03  0.48597530353E+03  0.35000000000E+03 0.  0.
       21    1    1    2  504  501  0.55015008020E+00  0.75010715925E+02 -0.32975299637E+03  0.33817739248E+03  0.00000000000E+00 0. -1.
<scales pt_clust_1="13000.00000" pt_clust_2="13000.00000" pt_clust_3="75.01273"></scales>
<clustering>
<clus scale="   75.013">  2  5  1 -1</clus>
<clus scale="  363.647">  1  4  2 -1</clus>
<clus scale="  363.647">  1  3  2 -1</clus>
</clustering>
</event>
<event>
 5   1  0.3464723E-02  0.3925911E+03  0.7816531E-02  0.1046376E+00
       21   -1    0    0  504  502  0.00000000000E+00  0.00000000000E+00  0.57299577720E+03  0.57299577720E+03  0.00000000000E+00 0.  1.
       21   -1    0    0  502  503  0.00000000000E+00  0.00000000000E+00 -0.31841400788E+03  0.31841400788E+03  0.00000000000E+00 0.  1.
  1000006    1    1    2  501    0  0.19379049969E+02  0.14620870570E+03  0.15651625181E+03  0.41079176024E+03  0.35000000000E+03 0.  0.
 -1000006    1    1    2    0  503 -0.19364978213E+02 -0.20142902996E+03  0.49923397039E+02  0.40735856694E+03  0.35000000000E+03 0.  0.
       21    1    1    2  504  501 -0.14071756669E-01  0.55220324253E+02  0.48142120471E+02  0.73259457902E+02  0.00000000000E+00 0. -1.
<scales pt_clust_1="13000.00000" pt_clust_2="13000.00000" pt_clust_3="55.22033"></scales>
<clustering>
<clus scale="   55.220">  1  5  2 -1</clus>
<clus scale="  392.591">  2  4  1 -1</clus>
<clus scale="  392.591">  1  3  2 -1</clus>
</clustering>
</event>
<event>
 6   2  0.3464723E-02  0.4308404E+03  0.7816531E-02  0.1033595E+00
       21   -1    0    0  501  502  0.00000000000E+00  0.00000000000E+00  0.18209712401E+03  0.18209712401E+03  0.00000000000E+00 0. -1.
       21   -1    0    0  505  503  0.00000000000E+00  0.00000000000E+00 -0.23290956451E+04  0.23290956451E+04  0.00000000000E+00 0. -1.
  1000006    1    1    2  501    0 -0.34290057690E+03 -0.79089592853E+02 -0.48530269551E+03  0.69415752939E+03  0.35000000000E+03 0.  0.
 -1000006    1    1    2    0  504  0.13766538554E+03  0.28518426974E+02 -0.59359738977E+03  0.70329433397E+03  0.35000000000E+03 0.  0.
       21    1    1    2  504  503  0.25833911391E+03  0.43989387081E+02 -0.88859834587E+03  0.92643466269E+03  0.00000000000E+00 0. -1.
       21    1    1    2  505  502 -0.53103922552E+02  0.65817787990E+01 -0.17950008998E+03  0.18730624310E+03  0.00000000000E+00 0. -1.
<scales pt_clust_1="13000.00000" pt_clust_2="13000.00000" pt_clust_3="240.47159" pt_clust_4="53.51025"></scales>
<clustering>
<clus scale="   53.510">  2  6  1 -1</clus>
<clus scale="  240.472">  2  5  1 -1</clus>
<clus scale="  430.840">  2  4  1 -1</clus>
<clus scale="  430.840">  1  3  2 -1</clus>
</clustering>
</event>
<event>
 6   2  0.3464723E-02  0.3569575E+03  0.7816531E-02  0.1059795E+00
       21   -1    0    0  502  503  0.00000000000E+00  0.00000000000E+00  0.47039231461E+03  0.47039231461E+03  0.00000000000E+00 0.  1.
        1   -1    0    0  504    0  0.00000000000E+00  0.00000000000E+00 -0.10352212479E+04  0.10352212479E+04  0.00000000000E+00 0.  1.
  1000006    1    1    2  501    0 -0.13018018769E+03 -0.20363723345E+02 -0.14695770473E+03  0.40181852804E+03  0.35000000000E+03 0.  0.
 -1000006    1    1    2    0  503  0.32567424971E+02 -0.60682865959E+02  0.23731324092E+03  0.42843975272E+03  0.35000000000E+03 0.  0.
       21    1    1    2  504  501  0.30686759036E+02  0.11223805336E+02 -0.41706832369E+03  0.41834631301E+03  0.00000000000E+00 0.  1.
        1    1    1    2  502    0  0.66926003681E+02  0.69822783969E+02 -0.23811614575E+03  0.25700896871E+03  0.00000000000E+00 0.  1.
<scales pt_clust_1="13000.00000" pt_clust_2="13000.00000" pt_clust_3="32.67493" pt_clust_4="108.63223"></scales>
<clustering>
<clus scale="   32.675">  2  5  1 -1</clus>
<clus scale="  108.632">  2  6  1 -1</clus>
<clus scale="  356.957">  1  4  2 -1</clus>
<clus scale="  356.957">  1  3  2 -1</clus>
</clustering>
</event>
<event>
 5   1  0.3464723E-02  0.3561809E+03  0.7816531E-02  0.1060106E+00
       21   -1    0    0  503  502  0.00000000000E+00  0.00000000000E+00  0.40635715315E+04  0.40635715315E+04  0.00000000000E+00 0. -1.
       21   -1    0    0  501  503  0.00000000000E+00  0.00000000000E+00 -0.12165354529E+03  0.12165354529E+03  0.00000000000E+00 0.  1.
  1000006    1    1    2  501    0 -0.67610298537E+02 -0.31343546632E+02  0.44926291630E+03  0.57436115672E+03  0.35000000000E+03 0.  0.
 -1000006    1    1    2    0  504  0.22957605088E+02  0.64616542415E+02  0.48154749497E+03  0.59924146977E+03  0.35000000000E+03 0.  0.
       21    1    1    2  504  502  0.44652693449E+02 -0.33272995783E+02  0.30111075750E+04  0.30116224503E+04  0.00000000000E+00 0. -1.
<scales pt_clust_1="13000.00000" pt_clust_2="13000.00000" pt_clust_3="55.68622"></scales>
<clustering>
<clus scale="   55.686">  1  5  2 -1</clus>
<clus scale="  356.181">  2  3  1 -1</clus>
<clus scale="  356.181">  1  3  2 -1</clus>
</clustering>
</event>
<event>
 5   1  0.3464723E-02  0.3953540E+03  0.7816531E-02  0.1045400E+00
       21   -1    0    0  504  502  0.00000000000E+00  0.00000000000E+00  0.97372068452E+03  0.97372068452E+03  0.00000000000E+00 0. -1.
       21   -1    0    0  501  503  0.00000000000E+00  0.00000000000E+00 -0.19845763166E+03  0.19845763166E+03  0.00000000000E+00 0. -1.
  1000006    1    1    2  501    0  0.17688404900E+03  0.21974684092E+02  0.17328750041E+03  0.42930107306E+03  0.35000000000E+03 0.  0.
 -1000006    1    1    2    0  502 -0.19638342966E+03  0.37368612588E+01  0.53785920491E+03  0.67109830866E+03  0.35000000000E+03 0.  0.
       21    1    1    2  504  503  0.19499380668E+02 -0.25711545351E+02  0.64116347535E+02  0.71778934458E+02  0.00000000000E+00 0. -1.
<scales pt_clust_1="13000.00000" pt_clust_2="13000.00000" pt_clust_3="32.26933"></scales>
<clustering>
<clus scale="   32.269">  1  5  2 -1</clus>
<clus scale="  395.354">  1  4  2 -1</clus>
<clus scale="  395.354">  1  3  2 -1</clus>
</clustering>
</event>
<event>
 4   0  0.3464723E-02  0.3963664E+03  0.7816531E-02  0.1045045E+00
       21   -1    0    0  501  502  0.00000000000E+00  0.00000000000E+00  0.69700849317E+03  0.69700849317E+03  0.00000000000E+00 0.  1.
       21   -1    0    0  502  503  0.00000000000E+00  0.00000000000E+00 -0.32794758388E+03  0.32794758388E+03  0.00000000000E+00 0.  1.
  1000006    1    1    2  501    0  0.17236875456E+03  0.69966905187E+02  0.47110249122E+03  0.61566542261E+03  0.35000000000E+03 0.  0.
 -1000006    1    1    2    0  503 -0.17236875456E+03 -0.69966905187E+02 -0.10204158193E+03  0.40929065444E+03  0.35000000000E+03 0.  0.
<scales pt_clust_1="13000.00000" pt_clust_2="13000.00000"></scales>
<clustering>
<clus scale="  396.366">  1  3  2 -1</clus>
<clus scale="  396.366">  1  3  2 -1</clus>
</clustering>
</event>
<event>
 4   0  0.3464723E-02  0.7021707E+03  0.7816531E-02  0.9713527E-01
       21   -1    0    0  503  502  0.00000000000E+00  0.00000000000E+00  0.57404721012E+03  0.57404721012E+03  0.00000000000E+00 0.  1.
       21   -1    0    0  501  503  0.00000000000E+00  0.00000000000E+00 -0.89375915494E+03  0.89375915494E+03  0.00000000000E+00 0. -1.
  1000006    1    1    2  501    0 -0.57249395584E+02 -0.60602495274E+03 -0.30481513401E+03  0.76547763034E+03  0.35000000000E+03 0.  0.
 -1000006    1    1    2    0  502  0.57249395584E+02  0.60602495274E+03 -0.14896810801E+02  0.70232873471E+03  0.35000000000E+03 0.  0.
<scales pt_clust_1="13000.00000" pt_clust_2="13000.00000"></scales>
<clustering>
<clus scale="  702.171">  2  3  1 -1</clus>
<clus scale="  702.171">  1  3  2 -1</clus>
</clustering>
</event>
<event>
 6   2  0.3464723E-02  0.3582301E+03  0.7816531E-02  0.1059287E+00
        2   -1    0    0  501    0  0.00000000000E+00  0.00000000000E+00  0.11636251908E+04  0.11636251908E+04  0.00000000000E+00 0. -1.
       21   -1    0    0  502  503  0.00000000000E+00  0.00000000000E+00 -0.95522665358E+03  0.95522665358E+03  0.00000000000E+00 0.  1.
  1000006    1    1    2  501    0  0.24341573373E+03  0.14599424947E+03 -0.14216062691E+03  0.47252003571E+03  0.35000000000E+03 0.  0.
 -1000006    1    1    2    0  504  0.50207532745E+01  0.10480717334E+02 -0.49701590341E+03  0.60799659674E+03  0.35000000000E+03 0.  0.
       21    1    1    2  504  503 -0.29694984071E+02  0.81998163232E+01 -0.72293328635E+02  0.78583423391E+02  0.00000000000E+00 0.  1.
        2    1    1    2  502    0 -0.21874150294E+03 -0.16467478313E+03  0.91986839623E+03  0.95975178858E+03  0.00000000000E+00 0. -1.
<scales pt_clust_1="13000.00000" pt_clust_2="13000.00000" pt_clust_3="30.80632" pt_clust_4="274.22503"></scales>
<clustering>
<clus scale="   30.806">  2  5  1 -1</clus>
<clus scale="  274.225">  1  6  2 -1</clus>
<clus scale="  358.230">  2  4  1 -1</clus>
<clus scale="  358.230">  2  3  1 -1</clus>
</clustering>
</event>
<event>
 6   2  0.3464723E-02  0.5872636E+03  0.7816531E-02  0.9932188E-01
       21   -1    0    0  503  502  0.00000000000E+00  0.00000000000E+00  0.76031320366E+03  0.76031320366E+03  0.00000000000E+00 0. -1.
       21   -1    0    0  505  503  0.00000000000E+00  0.00000000000E+00 -0.69715689130E+03  0.69715689130E+03  0.00000000000E+00 0.  1.
  1000006    1    1    2  501    0  0.45779019311E+03 -0.98701952136E+02 -0.34426974154E+03  0.67848035433E+03  0.35000000000E+03 0.  0.
 -1000006    1    1    2    0  504 -0.43461439846E+03  0.11617443895E+03  0.32446625426E+03  0.65586929015E+03  0.35000000000E+03 0.  0.
       21    1    1    2  504  502 -0.33986235115E+02  0.12692366579E+02  0.83533939853E+02  0.91071836777E+02  0.00000000000E+00 0.  1.
       21    1    1    2  505  501  0.10810440457E+02 -0.30164853394E+02 -0.57414021384E+00  0.32048613700E+02  0.00000000000E+00 0. -1.
<scales pt_clust_1="13000.00000" pt_clust_2="13000.00000" pt_clust_3="36.16470" pt_clust_4="32.04347"></scales>
<clustering>
<clus scale="   32.043">  2  6  1 -1</clus>
<clus scale="   36.165">  1  5  2 -1</clus>
<clus scale="  587.264">  2  3  1 -1</clus>
<clus scale="  587.264">  1  3  2 -1</clus>
</clustering>
</event>
<event>
 5   1  0.3464723E-02  0.5207406E+03  0.7816531E-02  0.1008503E+00
       21   -1    0    0  501  502  0.00000000000E+00  0.00000000000E+00  0.11007480005E+04  0.11007480005E+04  0.00000000000E+00 0. -1.
       21   -1    0    0  504  503  0.00000000000E+00  0.00000000000E+00 -0.20035229123E+04  0.20035229123E+04  0.00000000000E+00 0.  1.
  1000006    1    1    2  501    0 -0.28482980037E+03  0.33259940375E+03 -0.72162965661E+03  0.91378320178E+03  0.35000000000E+03 0.  0.
 -1000006    1    1    2    0  503  0.41009383564E+03 -0.84528183416E+01 -0.10907554772E+04  0.12167563089E+04  0.35000000000E+03 0.  0.
       21    1    1    2  504  502 -0.12526403527E+03 -0.32414658541E+03  0.90961022210E+03  0.97373140214E+03  0.00000000000E+00 0. -1.
<scales pt_clust_1="13000.00000" pt_clust_2="13000.00000" pt_clust_3="347.50840"></scales>
<clustering>
<clus scale="  347.508">  1  5  2 -1</clus>
<clus scale="  520.741">  1  3  2 -1</clus>
<clus scale="  520.741">  1  3  2 -1</clus>
</clustering>
</event>
<event>
 4   0  0.3464723E-02  0.4142026E+03  0.7816531E-02  0.1038970E+00
       21   -1    0    0  501  502  0.00000000000E+00  0.00000000000E+00  0.91506968175E+02  0.91506968175E+02  0.00000000000E+00 0.  1.
       21   -1    0    0  502  503  0.00000000000E+00  0.00000000000E+00 -0.19834174736E+04  0.19834174736E+04  0.00000000000E+00 0.  1.
  1000006    1    1    2  501    0  0.13349623838E+03 -0.17675560787E+03 -0.70325376706E+03  0.81616766137E+03  0.35000000000E+03 0.  0.
 -1000006    1    1    2    0  503 -0.13349623838E+03  0.17675560787E+03 -0.11886567384E+04  0.12587567804E+04  0.35000000000E+03 0.  0.
<scales pt_clust_1="13000.00000" pt_clust_2="13000.00000"></scales>
<clustering>
<clus scale="  414.203">  1  3  2 -1</clus>
<clus scale="  414.203">  1  3  2 -1</clus>
</clustering>
</event>
<event>
 6   2  0.3464723E-02  0.4046466E+03  0.7816531E-02  0.1042183E+00
        2   -1    0    0  501    0  0.00000000000E+00  0.00000000000E+00  0.27273903628E+04  0.27273903628E+04  0.00000000000E+00 0. -1.
        1   -1    0    0  502    0  0.00000000000E+00  0.00000000000E+00 -0.16835678369E+03  0.16835678369E+03  0.00000000000E+00 0.  1.
  1000006    1    1    2  501    0 -0.18410984496E+03  0.13689889948E+03  0.18642574559E+04  0.19106526648E+04  0.35000000000E+03 0.  0.
 -1000006    1    1    2    0  503  0.89195855824E+02 -0.13028760581E+03  0.76684497374E+03  0.85760245725E+03  0.35000000000E+03 0.  0.
        2    1    1    2  502    0  0.64590428752E+02  0.11124149189E+02 -0.63663314359E+02  0.91371153964E+02  0.00000000000E+00 0. -1.
        1    1    1    2  503    0  0.30323560385E+02 -0.17735442859E+02 -0.84055361424E+01  0.36120870499E+02  0.00000000000E+00 0.  1.
<scales pt_clust_1="13000.00000" pt_clust_2="13000.00000" pt_clust_3="80.69830" pt_clust_4="35.12925"></scales>
<clustering>
<clus scale="   35.129">  2  6  1 -1</clus>
<clus scale="   80.698">  2  5  1 -1</clus>
<clus scale="  603.311">  3  4 -1 -1</clus>
<clus scale="  404.647">  1  3  2 -1</clus>
</clustering>
</event>
<event>
 5   1  0.3464723E-02  0.4350985E+03  0.7816531E-02  0.1032261E+00
       21   -1    0    0  503  502  0.00000000000E+00  0.00000000000E+00  0.11237673095E+04  0.11237673095E+04  0.00000000000E+00 0. -1.
       21   -1    0    0  504  503  0.00000000000E+00  0.00000000000E+00 -0.11557360996E+04  0.11557360996E+04  0.00000000000E+00 0. -1.
  1000006    1    1    2  501    0  0.33986364472E+02  0.26125827059E+03  0.43974645559E+03  0.62071563709E+03  0.35000000000E+03 0.  0.
 -1000006    1    1    2    0  502  0.14586423460E+02 -0.25580134720E+03  0.51360113644E+03  0.67225978634E+03  0.35000000000E+03 0.  0.
       21    1    1    2  504  501 -0.48572787931E+02 -0.54569233823E+01 -0.98531638210E+03  0.98652798571E+03  0.00000000000E+00 0. -1.
<scales pt_clust_1="13000.00000" pt_clust_2="13000.00000" pt_clust_3="48.87836"></scales>
<clustering>
<clus scale="   48.878">  2  5  1 -1</clus>
<clus scale="  435.098">  2  3  1 -1</clus>
<clus scale="  435.098">  1  3  2 -1</clus>
</clustering>
</event>
<event>
 6   2  0.3464723E-02  0.4201488E+03  0.7816531E-02  0.1037018E+00
       21   -1    0    0  504  503  0.00000000000E+00  0.00000000000E+00  0.65030829728E+03  0.65030829728E+03  0.00000000000E+00 0.  1.
        1   -1    0    0  501    0  0.00000000000E+00  0.00000000000E+00 -0.16158708396E+04  0.16158708396E+04  0.00000000000E+00 0. -1.
  1000006    1    1    2  501    0  0.28361208150E+03  0.41317895705E+02 -0.70445160484E+03  0.83719474726E+03  0.35000000000E+03 0.  0.
 -1000006    1    1    2    0  503 -0.21313669953E+03 -0.79120733882E+02  0.45889634930E+03  0.62030089684E+03  0.35000000000E+03 0.  0.
       21    1    1    2  504  502 -0.10895683739E+03  0.78131372344E+02 -0.60959575250E+02  0.14728263161E+03  0.00000000000E+00 0.  1.
        1    1    1    2  502    0  0.38481455423E+02 -0.40328534167E+02 -0.65904771153E+03  0.66140086116E+03  0.00000000000E+00 0. -1.
<scales pt_clust_1="13000.00000" pt_clust_2="13000.00000" pt_clust_3="128.11220" pt_clust_4="55.74238"></scales>
<clustering>
<clus scale="   55.742">  2  6  1 -1</clus>
<clus scale="  128.112">  2  5  1 -1</clus>
<clus scale="  420.149">  1  4  2 -1</clus>
<clus scale="  420.149">  1  3  2 -1</clus>
</clustering>
</event>
<event>
 6   2  0.3464723E-02  0.4615439E+03  0.7816531E-02  0.1024334E+00
       21   -1    0    0  504  502  0.00000000000E+00  0.00000000000E+00  0.28830192950E+03  0.28830192950E+03  0.00000000000E+00 0. -1.
       21   -1    0    0  501  503  0.00000000000E+00  0.00000000000E+00 -0.11961538638E+04  0.11961538638E+04  0.00000000000E+00 0. -1.
  1000006    1    1    2  501    0 -0.11402166851E+03  0.25947335405E+03 -0.39284839008E+03  0.59762632133E+03  0.35000000000E+03 0.  0.
 -1000006    1    1    2    0  502  0.29881943706E+03 -0.17343837511E+03 -0.30983047925E+03  0.58126487233E+03  0.35000000000E+03 0.  0.
       21    1    1    2  504  505 -0.16020146803E+03 -0.10806691363E+03 -0.17090239998E+03  0.25797402679E+03  0.00000000000E+00 0. -1.
       21    1    1    2  505  503 -0.24596300529E+02  0.22031934688E+02 -0.34270664981E+02  0.47590572848E+02  0.00000000000E+00 0. -1.
<scales pt_clust_1="13000.00000" pt_clust_2="13000.00000" pt_clust_3="194.83193" pt_clust_4="33.02097"></scales>
<clustering>
<clus scale="   33.021">  2  6  1 -1</clus>
<clus scale="  194.832">  2  5  1 -1</clus>
<clus scale="  461.544">  2  3  1 -1</clus>
<clus scale="  461.544">  1  3  2 -1</clus>
</clustering>
</event>
<event>
 4   0  0.3464723E-02  0.7500328E+03  0.7816531E-02  0.9635299E-01
       -1   -1    0    0    0  501  0.00000000000E+00  0.00000000000E+00  0.33786935442E+03  0.33786935442E+03  0.00000000000E+00 0.  1.
        1   -1    0    0  502    0  0.00000000000E+00  0.00000000000E+00 -0.17248052527E+04  0.17248052527E+04  0.00000000000E+00 0. -1.
  1000006    1    1    2  502    0  0.52799636072E+03  0.40158320990E+03 -0.88552719268E+03  0.11604773330E+04  0.35000000000E+03 0.  0.
 -1000006    1    1    2    0  501 -0.52799636072E+03 -0.40158320990E+03 -0.50140870561E+03  0.90219727414E+03  0.35000000000E+03 0.  0.
<scales pt_clust_1="13000.00000" pt_clust_2="13000.00000"></scales>
<clustering>
<clus scale=" 1401.262">  3  4 -1 -1</clus>
<clus scale="  750.033">  2  3  1 -1</clus>
</clustering>
</event>
<event>
 6   2  0.3464723E-02  0.3948458E+03  0.7816531E-02  0.1045579E+00
       21   -1    0    0  504  503  0.00000000000E+00  0.00000000000E+00  0.36117654798E+03  0.36117654798E+03  0.00000000000E+00 0.  1.
        1   -1    0    0  503    0  0.00000000000E+00  0.00000000000E+00 -0.18566561839E+04  0.18566561839E+04  0.00000000000E+00 0.  1.
  1000006    1    1    2  501    0  0.72829273066E+02 -0.18657653712E+03  0.48413469738E+02  0.40615116800E+03  0.35000000000E+03 0.  0.
 -1000006    1    1    2    0  502 -0.10275801317E+03  0.11868185412E+03 -0.26263239343E+03  0.46488747654E+03  0.35000000000E+03 0.  0.
       21    1    1    2  504  501  0.34990892838E+02  0.21813138690E+02  0.19216252813E+02  0.45491097737E+02  0.00000000000E+00 0.  1.
        1    1    1    2  502    0 -0.50621527371E+01  0.46081544314E+02 -0.13004769650E+04  0.13013029896E+04  0.00000000000E+00 0.  1.
<scales pt_clust_1="13000.00000" pt_clust_2="13000.00000" pt_clust_3="41.23319" pt_clust_4="46.38121"></scales>
<clustering>
<clus scale="   41.233">  1  5  2 -1</clus>
<clus scale="   46.381">  2  6  1 -1</clus>
<clus scale="  394.846">  1  3  2 -1</clus>
<clus scale="  394.846">  1  3  2 -1</clus>
</clustering>
</event>
<event>
 6   2  0.3464723E-02  0.3501951E+03  0.7816531E-02  0.1062535E+00
       21   -1    0    0  505  502  0.00000000000E+00  0.00000000000E+00  0.11610985364E+04  0.11610985364E+04  0.00000000000E+00 0. -1.
       21   -1    0    0  504  503  0.00000000000E+00  0.00000000000E+00 -0.59193995879E+03  0.59193995879E+03  0.00000000000E+00 0. -1.
  1000006    1    1    2  501    0 -0.15763746269E+02  0.56442978807E+02 -0.23289472436E+03  0.42446938428E+03  0.35000000000E+03 0.  0.
 -1000006    1    1    2    0  502  0.54251419604E+02  0.93266256592E+02  0.81363721068E+03  0.89227087913E+03  0.35000000000E+03 0.  0.
       21    1    1    2  504  501  0.10915346402E+02 -0.50820664388E+02 -0.20610665611E+03  0.21256019949E+03  0.00000000000E+00 0. -1.
       21    1    1    2  505  503 -0.49403019737E+02 -0.98888571011E+02  0.19452274741E+03  0.22373803229E+03  0.00000000000E+00 0. -1.
<scales pt_clust_1="13000.00000" pt_clust_2="13000.00000" pt_clust_3="51.97966" pt_clust_4="112.09869"></scales>
<clustering>
<clus scale="   51.980">  2  5  1 -1</clus>
<clus scale="  112.099">  1  6  2 -1</clus>
<clus scale="  350.195">  1  4  2 -1</clus>
<clus scale="  350.195">  1  3  2 -1</clus>
</clustering>
</event>
<event>
 6   2  0.3464723E-02  0.4338213E+03  0.7816531E-02  0.1032660E+00
       21   -1    0    0  504  502  0.00000000000E+00  0.00000000000E+00  0.56984504966E+03  0.56984504966E+03  0.00000000000E+00 0.  1.
       21   -1    0    0  501  503  0.00000000000E+00  0.00000000000E+00 -0.53072380717E+03  0.53072380717E+03  0.00000000000E+00 0.  1.
  1000006    1    1    2  501    0  0.36069945007E+02 -0.20187139851E+03 -0.17067107663E+02  0.40601033070E+03  0.35000000000E+03 0.  0.
 -1000006    1    1    2    0  505 -0.16597435186E+03  0.27549727294E+03 -0.49321324703E+02  0.47788997263E+03  0.35000000000E+03 0.  0.
       21    1    1    2  504  503  0.11884754914E+03 -0.42021654602E+02  0.23691976421E+02  0.12826483984E+03  0.00000000000E+00 0.  1.
       21    1    1    2  505  502  0.11056857710E+02 -0.31604219828E+02  0.81817698429E+02  0.88403713664E+02  0.00000000000E+00 0.  1.
<scales pt_clust_1="13000.00000" pt_clust_2="13000.00000" pt_clust_3="129.40778" pt_clust_4="33.48254"></scales>
<clustering>
<clus scale="   33.483">  1  6  2 -1</clus>
<clus scale="  129.408">  1  5  2 -1</clus>
<clus scale="  433.821">  2  3  1 -1</clus>
<clus scale="  433.821">  1  3  2 -1</clus>
</clustering>
</event>
<event>
 4   0  0.3464723E-02  0.4938482E+03  0.7816531E-02  0.1015397E+00
       -1   -1    0    0    0  501  0.00000000000E+00  0.00000000000E+00  0.20777742721E+03  0.20777742721E+03  0.00000000000E+00 0. -1.
        1   -1    0    0  502    0  0.00000000000E+00  0.00000000000E+00 -0.12236757971E+04  0.12236757971E+04  0.00000000000E+00 0.  1.
  1000006    1    1    2  502    0 -0.29919559314E+03  0.17851631626E+03 -0.36343078685E+03  0.61316230719E+03  0.35000000000E+03 0.  0.
 -1000006    1    1    2    0  501  0.29919559314E+03 -0.17851631626E+03 -0.65246758300E+03  0.81829091709E+03  0.35000000000E+03 0.  0.
<scales pt_clust_1="13000.00000" pt_clust_2="13000.00000"></scales>
<clustering>
<clus scale="  805.921">  3  4 -1 -1</clus>
<clus scale="  493.848">  2  3  1 -1</clus>
</clustering>
</event>
<event>
 4   0  0.3464723E-02  0.3562067E+03  0.7816531E-02  0.1060096E+00
       21   -1    0    0  501  502  0.00000000000E+00  0.00000000000E+00  0.16077556813E+03  0.16077556813E+03  0.00000000000E+00 0.  1.
       21   -1    0    0  502  503  0.00000000000E+00  0.00000000000E+00 -0.82431758596E+03  0.82431758596E+03  0.00000000000E+00 0.  1.
  1000006    1    1    2  501    0  0.38194170507E+02 -0.54077839255E+02 -0.23010030129E+03  0.42406291516E+03  0.35000000000E+03 0.  0.
 -1000006    1    1    2    0  503 -0.38194170507E+02  0.54077839255E+02 -0.43344171654E+03  0.56103023893E+03  0.35000000000E+03 0.  0.
<scales pt_clust_1="13000.00000" pt_clust_2="13000.00000"></scales>
<clustering>
<clus scale="  356.207">  1  3  2 -1</clus>
<clus scale="  356.207">  1  3  2 -1</clus>
</clustering>
</event>
<event>
 5   1  0.3464723E-02  0.3704025E+03  0.7816531E-02  0.1054539E+00
       21   -1    0    0  501  502  0.00000000000E+00  0.00000000000E+00  0.67636693473E+03  0.67636693473E+03  0.00000000000E+00 0.  1.
       21   -1    0    0  502  503  0.00000000000E+00  0.00000000000E+00 -0.24192134384E+03  0.24192134384E+03  0.00000000000E+00 0.  1.
  1000006    1    1    2  501    0  0.13261258774E+02  0.10417851684E+03  0.29811396337E+03  0.47159406221E+03  0.35000000000E+03 0.  0.
 -1000006    1    1    2    0  504 -0.82501890016E+01 -0.14585485713E+03  0.14063079299E+03  0.40449811484E+03  0.35000000000E+03 0.  0.
       21    1    1    2  504  503 -0.50110697723E+01  0.41676340292E+02 -0.42991654745E+01  0.42196101528E+02  0.00000000000E+00 0. -1.
<scales pt_clust_1="13000.00000" pt_clust_2="13000.00000" pt_clust_3="41.97652"></scales>
<clustering>
<clus scale="   41.977">  2  5  1 -1</clus>
<clus scale="  370.402">  1  3  2 -1</clus>
<clus scale="  370.402">  1  3  2 -1</clus>
</clustering>
</event>
<event>
 6   2  0.3464723E-02  0.5086820E+03  0.7816531E-02  0.1011537E+00
       21   -1    0    0  504  503  0.00000000000E+00  0.00000000000E+00  0.18469580863E+04  0.18469580863E+04  0.00000000000E+00 0. -1.
        4   -1    0    0  501    0  0.00000000000E+00  0.00000000000E+00 -0.56506021225E+03  0.56506021225E+03  0.00000000000E+00 0. -1.
  1000006    1    1    2  501    0  0.52153291585E+03  0.48933242880E+02  0.12068131624E+03  0.64144760087E+03  0.35000000000E+03 0.  0.
 -1000006    1    1    2    0  503 -0.28151322500E+03  0.22928634927E+03  0.12789838211E+04  0.13748169116E+04  0.35000000000E+03 0.  0.
       21    1    1    2  504  502 -0.96933511005E+02 -0.76101907034E+02 -0.41850282673E+01  0.12330904375E+03  0.00000000000E+00 0.  1.
        4    1    1    2  502    0 -0.14308617984E+03 -0.20211768512E+03 -0.11358223502E+03  0.27244474231E+03  0.00000000000E+00 0. -1.
<scales pt_clust_1="13000.00000" pt_clust_2="13000.00000" pt_clust_3="62.04835" pt_clust_4="377.82527"></scales>
<clustering>
<clus scale="   62.048">  5  6 -1 -1</clus>
<clus scale="  377.825">  2  5  1 -1</clus>
<clus scale="  508.682">  1  4  2 -1</clus>
<clus scale="  508.682">  1  3  2 -1</clus>
</clustering>
</event>
<event>
 6   2  0.3464723E-02  0.3773570E+03  0.7816531E-02  0.1051915E+00
       21   -1    0    0  505  502  0.00000000000E+00  0.00000000000E+00  0.62053187990E+03  0.62053187990E+03  0.00000000000E+00 0.  1.
       21   -1    0    0  501  503  0.00000000000E+00  0.00000000000E+00 -0.11037410008E+04  0.11037410008E+04  0.00000000000E+00 0.  1.
  1000006    1    1    2  501    0 -0.79795380186E+02  0.14541723709E+03 -0.67538554214E+03  0.77856220437E+03  0.35000000000E+03 0.  0.
 -1000006    1    1    2    0  502  0.50777557923E+02 -0.74357517746E+02 -0.19897765322E+03  0.41255242978E+03  0.35000000000E+03 0.  0.
       21    1    1    2  504  503  0.10159851655E+02 -0.10911176771E+03 -0.26993620739E+02  0.11285945241E+03  0.00000000000E+00 0.  1.
       21    1    1    2  505  504  0.18857970609E+02  0.38052048371E+02  0.41814769515E+03  0.42029879419E+03  0.00000000000E+00 0.  1.
<scales pt_clust_1="13000.00000" pt_clust_2="13000.00000" pt_clust_3="101.98726" pt_clust_4="42.46859"></scales>
<clustering>
<clus scale="   42.469">  1  6  2 -1</clus>
<clus scale="  101.987">  1  5  2 -1</clus>
<clus scale="  377.357">  2  3  1 -1</clus>
<clus scale="  377.357">  1  3  2 -1</clus>
</clustering>
</event>
<event>
 6   2  0.3464723E-02  0.3572726E+03  0.7816531E-02  0.1059669E+00
       21   -1    0    0  501  502  0.00000000000E+00  0.00000000000E+00  0.14742198452E+04  0.14742198452E+04  0.00000000000E+00 0.  1.
       21   -1    0    0  504  503  0.00000000000E+00  0.00000000000E+00 -0.77914061521E+03  0.77914061521E+03  0.00000000000E+00 0.  1.
  1000006    1    1    2  501    0 -0.48688144258E+02  0.14773897282E+03 -0.70076989361E+02  0.38936887898E+03  0.35000000000E+03 0.  0.
 -1000006    1    1    2    0  503  0.80622735061E+02  0.49915134776E+02 -0.34314509753E+03  0.49923952573E+03  0.35000000000E+03 0.  0.
       21    1    1    2  504  505 -0.65857269201E+01 -0.16768130684E+03 -0.72855243705E+02  0.18294337648E+03  0.00000000000E+00 0.  1.
       21    1    1    2  505  502 -0.25348863883E+02 -0.29972800760E+02  0.11811565606E+04  0.11818086792E+04  0.00000000000E+00 0.  1.
<scales pt_clust_1="13000.00000" pt_clust_2="13000.00000" pt_clust_3="173.68854" pt_clust_4="39.25473"></scales>
<clustering>
<clus scale="   39.255">  1  6  2 -1</clus>
<clus scale="  173.689">  1  5  2 -1</clus>
<clus scale="  357.273">  1  3  2 -1</clus>
<clus scale="  357.273">  1  3  2 -1</clus>
</clustering>
</event>
<event>
 6   2  0.3464723E-02  0.3599786E+03  0.7816531E-02  0.1058592E+00
        2   -1    0    0  501    0  0.00000000000E+00  0.00000000000E+00  0.22956624496E+03  0.22956624496E+03  0.00000000000E+00 0.  1.
       21   -1    0    0  502  503  0.00000000000E+00  0.00000000000E+00 -0.13061871607E+04  0.13061871607E+04  0.00000000000E+00 0.  1.
  1000006    1    1    2  501    0 -0.78512820912E+02  0.51386154295E+02 -0.12745394061E+03  0.38412147412E+03  0.35000000000E+03 0.  0.
 -1000006    1    1    2    0  504  0.89514516483E+02  0.30184230583E+02 -0.32274023812E+03  0.48537119583E+03  0.35000000000E+03 0.  0.
       21    1    1    2  504  503 -0.70981471056E+01 -0.33606751387E+02 -0.61608253783E+03  0.61703929442E+03  0.00000000000E+00 0.  1.
        2    1    1    2  502    0 -0.39035484653E+01 -0.47963633491E+02 -0.10344199204E+02  0.49221441318E+02  0.00000000000E+00 0.  1.
<scales pt_clust_1="13000.00000" pt_clust_2="13000.00000" pt_clust_3="34.34818" pt_clust_4="49.59403"></scales>
<clustering>
<clus scale="   34.348">  2  5  1 -1</clus>
<clus scale="   49.594">  1  6  2 -1</clus>
<clus scale="  359.979">  2  4  1 -1</clus>
<clus scale="  359.979">  2  3  1 -1</clus>
</clustering>
</event>
<event>
 6   2  0.3464723E-02  0.4992905E+03  0.7816531E-02  0.1013964E+00
       21   -1    0    0  505  502  0.00000000000E+00  0.00000000000E+00  0.78448515119E+03  0.78448515119E+03  0.00000000000E+00 0. -1.
       21   -1    0    0  501  503  0.00000000000E+00  0.00000000000E+00 -0.11855586945E+04  0.11855586945E+04  0.00000000000E+00 0.  1.
  1000006    1    1    2  501    0 -0.28295591305E+03  0.20113100409E+03 -0.86139512289E+03  0.99248137880E+03  0.35000000000E+03 0.  0.
 -1000006    1    1    2    0  504  0.31177369240E+03 -0.24179315050E+03  0.32868600229E+02  0.52843836706E+03  0.35000000000E+03 0.  0.
       21    1    1    2  504  502  0.17931934843E+02 -0.30137489306E+02  0.43330671375E+02  0.55743785579E+02  0.00000000000E+00 0. -1.
       21    1    1    2  505  503 -0.46749714191E+02  0.70799635717E+02  0.38412230794E+03  0.39338031427E+03  0.00000000000E+00 0. -1.
<scales pt_clust_1="13000.00000" pt_clust_2="13000.00000" pt_clust_3="35.06883" pt_clust_4="66.31812"></scales>
<clustering>
<clus scale="   35.069">  1  5  2 -1</clus>
<clus scale="   66.318">  1  6  2 -1</clus>
<clus scale="  499.291">  1  4  2 -1</clus>
<clus scale="  499.291">  1  3  2 -1</clus>
</clustering>
</event>
<event>
 4   0  0.3464723E-02  0.5794469E+03  0.7816531E-02  0.9948989E-01
       21   -1    0    0  501  502  0.00000000000E+00  0.00000000000E+00  0.75617838141E+03  0.75617838141E+03  0.00000000000E+00 0.  1.
       21   -1    0    0  502  503  0.00000000000E+00  0.00000000000E+00 -0.47413217629E+03  0.47413217629E+03  0.00000000000E+00 0.  1.
  1000006    1    1    2  501    0  0.73903671697E+02  0.45584750349E+03  0.29604838956E+03  0.65069451211E+03  0.35000000000E+03 0.  0.
 -1000006    1    1    2    0  503 -0.73903671697E+02 -0.45584750349E+03 -0.14002184439E+02  0.57961604559E+03  0.35000000000E+03 0.  0.
<scales pt_clust_1="13000.00000" pt_clust_2="13000.00000"></scales>
<clustering>
<clus scale="  579.447">  1  3  2 -1</clus>
<clus scale="  579.447">  1  3  2 -1</clus>
</clustering>
</event>
<event>
 5   1  0.3464723E-02  0.6164306E+03  0.7816531E-02  0.9871892E-01
       21   -1    0    0  504  502  0.00000000000E+00  0.00000000000E+00  0.12894876783E+04  0.12894876783E+04  0.00000000000E+00 0.  1.
       21   -1    0    0  502  503  0.00000000000E+00  0.00000000000E+00 -0.86690027877E+03  0.86690027877E+03  0.00000000000E+00 0. -1.
  1000006    1    1    2  501    0 -0.25805442224E+03 -0.48405681055E+03  0.21931093579E+03  0.68665884341E+03  0.35000000000E+03 0.  0.
 -1000006    1    1    2    0  503  0.30624488263E+03  0.39035179555E+03 -0.48272467023E+03  0.77568264108E+03  0.35000000000E+03 0.  0.
       21    1    1    2  504  501 -0.48190460381E+02  0.93705014999E+02  0.68600113399E+03  0.69404647261E+03  0.00000000000E+00 0.  1.
<scales pt_clust_1="13000.00000" pt_clust_2="13000.00000" pt_clust_3="105.37054"></scales>
<clustering>
<clus scale="  105.371">  1  5  2 -1</clus>
<clus scale="  616.431">  1  3  2 -1</clus>
<clus scale="  616.431">  1  3  2 -1</clus>
</clustering>
</event>
<event>
 5   1  0.3464723E-02  0.4040810E+03  0.7816531E-02  0.1042376E+00
       21   -1    0    0  502  503  0.00000000000E+00  0.00000000000E+00  0.24129127972E+03  0.24129127972E+03  0.00000000000E+00 0.  1.
        1   -1    0    0  501    0  0.00000000000E+00  0.00000000000E+00 -0.90937402538E+03  0.90937402538E+03  0.00000000000E+00 0.  1.
  1000006    1    1    2  501    0 -0.11820709698E+03 -0.18975080733E+03 -0.53058606682E+03  0.67379511794E+03  0.35000000000E+03 0.  0.
 -1000006    1    1    2    0  503  0.62408643385E+02  0.14945380267E+03 -0.13280275818E+03  0.40788215269E+03  0.35000000000E+03 0.  0.
        1    1    1    2  502    0  0.55798453595E+02  0.40297004664E+02 -0.46939206644E+01  0.68988034467E+02  0.00000000000E+00 0.  1.
<scales pt_clust_1="13000.00000" pt_clust_2="13000.00000" pt_clust_3="68.82816"></scales>
<clustering>
<clus scale="   68.828">  1  5  2 -1</clus>
<clus scale="  598.083">  3  4 -1 -1</clus>
<clus scale="  404.081">  1  3  2 -1</clus>
</clustering>
</event>
<event>
 5   1  0.3464723E-02  0.7355531E+03  0.7816531E-02  0.9658292E-01
        1   -1    0    0  503    0  0.00000000000E+00  0.00000000000E+00  0.99210787365E+03  0.99210787365E+03  0.00000000000E+00 0. -1.
       -1   -1    0    0    0  501  0.00000000000E+00  0.00000000000E+00 -0.62807397214E+03  0.62807397214E+03  0.00000000000E+00 0.  1.
  1000006    1    1    2  502    0 -0.62429071893E+03  0.11033633333E+03 -0.47826974053E+02  0.72574129526E+03  0.35000000000E+03 0.  0.
 -1000006    1    1    2    0  501  0.66165683557E+03 -0.11010334902E+03  0.39088559172E+03  0.85158913881E+03  0.35000000000E+03 0.  0.
       21    1    1    2  503  502 -0.37366116643E+02 -0.23298431173E+00  0.20975283842E+02  0.42851411726E+02  0.00000000000E+00 0.  1.
<scales pt_clust_1="13000.00000" pt_clust_2="13000.00000" pt_clust_3="37.36684"></scales>
<clustering>
<clus scale="   37.367">  1  5  2 -1</clus>
<clus scale=" 1414.703">  3  4 -1 -1</clus>
<clus scale="  735.553">  1  3  2 -1</clus>
</clustering>
</event>
<event>
 5   1  0.3464723E-02  0.4133046E+03  0.7816531E-02  0.1039268E+00
       21   -1    0    0  502  503  0.00000000000E+00  0.00000000000E+00  0.30463112383E+03  0.30463112383E+03  0.00000000000E+00 0.  1.
        2   -1    0    0  501    0  0.00000000000E+00  0.00000000000E+00 -0.70661230727E+03  0.70661230727E+03  0.00000000000E+00 0.  1.
  1000006    1    1    2  501    0  0.14518814356E+03 -0.22653413459E+03 -0.21938482980E+03  0.49297770204E+03  0.35000000000E+03 0.  0.
 -1000006    1    1    2    0  503 -0.82266042378E+02  0.16216669418E+03 -0.13847171424E+03  0.41801932261E+03  0.35000000000E+03 0.  0.
        2    1    1    2  502    0 -0.62922101186E+02  0.64367440415E+02 -0.44124639406E+02  0.10024640645E+03  0.00000000000E+00 0.  1.
<scales pt_clust_1="13000.00000" pt_clust_2="13000.00000" pt_clust_3="90.01310"></scales>
<clustering>
<clus scale="   90.013">  2  5  1 -1</clus>
<clus scale="  413.305">  2  3  1 -1</clus>
<clus scale="  413.305">  1  3  2 -1</clus>
</clustering>
</event>
<event>
 5   1  0.3464723E-02  0.3872194E+03  0.7816531E-02  0.1048297E+00
       21   -1    0    0  503  502  0.00000000000E+00  0.00000000000E+00  0.10875812358E+04  0.10875812358E+04  0.00000000000E+00 0. -1.
       21   -1    0    0  501  503  0.00000000000E+00  0.00000000000E+00 -0.20895416502E+03  0.20895416502E+03  0.00000000000E+00 0. -1.
  1000006    1    1    2  501    0 -0.17318009988E+03 -0.63837502812E+01  0.20869326137E+03  0.44281483331E+03  0.35000000000E+03 0.  0.
 -1000006    1    1    2    0  504  0.15557078054E+03 -0.30287659591E+02  0.31603521679E+03  0.49749157614E+03  0.35000000000E+03 0.  0.
       21    1    1    2  504  502  0.17609319340E+02  0.36671409872E+02  0.35389859263E+03  0.35622899138E+03  0.00000000000E+00 0. -1.
<scales pt_clust_1="13000.00000" pt_clust_2="13000.00000" pt_clust_3="40.68022"></scales>
<clustering>
<clus scale="   40.680">  1  5  2 -1</clus>
<clus scale="  387.219">  2  3  1 -1</clus>
<clus scale="  387.219">  1  3  2 -1</clus>
</clustering>
</event>
<event>
 5   1  0.3464723E-02  0.3866181E+03  0.7816531E-02  0.1048514E+00
        1   -1    0    0  503    0  0.00000000000E+00  0.00000000000E+00  0.37780954999E+03  0.37780954999E+03  0.00000000000E+00 0.  1.
       21   -1    0    0  501  503  0.00000000000E+00  0.00000000000E+00 -0.12753075686E+04  0.12753075686E+04  0.00000000000E+00 0. -1.
  1000006    1    1    2  501    0 -0.53026633819E+02 -0.16793614895E+03 -0.74000189605E+03  0.83732740322E+03  0.35000000000E+03 0.  0.
 -1000006    1    1    2    0  502  0.27121472183E+02  0.14429287399E+03 -0.41124789265E+03  0.55962562214E+03  0.35000000000E+03 0.  0.
        1    1    1    2  502    0  0.25905161635E+02  0.23643274960E+02  0.25375177008E+03  0.25616409325E+03  0.00000000000E+00 0.  1.
<scales pt_clust_1="13000.00000" pt_clust_2="13000.00000" pt_clust_3="35.07252"></scales>
<clustering>
<clus scale="   35.073">  1  5  2 -1</clus>
<clus scale="  386.618">  2  3  1 -1</clus>
<clus scale="  386.618">  2  3  1 -1</clus>
</clustering>
</event>
<event>
 5   1  0.3464723E-02  0.4517886E+03  0.7816531E-02  0.1027190E+00
       21   -1    0    0  501  502  0.00000000000E+00  0.00000000000E+00  0.63795759844E+03  0.63795759844E+03  0.00000000000E+00 0.  1.
       21   -1    0    0  504  503  0.00000000000E+00  0.00000000000E+00 -0.45217808610E+03  0.45217808610E+03  0.00000000000E+00 0. -1.
  1000006    1    1    2  501    0 -0.19629673062E+03  0.22779516742E+03  0.33621676130E+01  0.46144809992E+03  0.35000000000E+03 0.  0.
 -1000006    1    1    2    0  503  0.19216478045E+03 -0.19212078689E+03  0.33787914828E+00  0.44310022993E+03  0.35000000000E+03 0.  0.
       21    1    1    2  504  502  0.41319501682E+01 -0.35674380525E+02  0.18207946557E+03  0.18558735469E+03  0.00000000000E+00 0.  1.
<scales pt_clust_1="13000.00000" pt_clust_2="13000.00000" pt_clust_3="35.91287"></scales>
<clustering>
<clus scale="   35.913">  1  5  2 -1</clus>
<clus scale="  451.789">  1  3  2 -1</clus>
<clus scale="  451.789">  1  3  2 -1</clus>
</clustering>
</event>
<event>
 6   2  0.3464723E-02  0.3785112E+03  0.7816531E-02  0.1051485E+00
       21   -1    0    0  501  503  0.00000000000E+00  0.00000000000E+00  0.21926690960E+03  0.21926690960E+03  0.00000000000E+00 0. -1.
        2   -1    0    0  503    0  0.00000000000E+00  0.00000000000E+00 -0.24326973375E+04  0.24326973375E+04  0.00000000000E+00 0. -1.
  1000006    1    1    2  501    0 -0.94251407486E+02  0.90507765943E+02 -0.14292612144E+03  0.40000357461E+03  0.35000000000E+03 0.  0.
 -1000006    1    1    2    0  504  0.10338091516E+03 -0.12997877595E+03 -0.33870027576E+03  0.51458718660E+03  0.35000000000E+03 0.  0.
       21    1    1    2  504  502 -0.46654013140E+02  0.45914932674E+02 -0.42468298081E+03  0.42969804767E+03  0.00000000000E+00 0.  1.
        2    1    1    2  502    0  0.37524505469E+02 -0.64439226683E+01 -0.13071210499E+04  0.13076754382E+04  0.00000000000E+00 0. -1.
<scales pt_clust_1="13000.00000" pt_clust_2="13000.00000" pt_clust_3="54.22044" pt_clust_4="38.07378"></scales>
<clustering>
<clus scale="   38.074">  2  6  1 -1</clus>
<clus scale="   54.220">  2  5  1 -1</clus>
<clus scale="  378.511">  2  4  1 -1</clus>
<clus scale="  378.511">  1  3  2 -1</clus>
</clustering>
</event>
<event>
 4   0  0.3464723E-02  0.4021902E+03  0.7816531E-02  0.1043024E+00
       21   -1    0    0  503  502  0.00000000000E+00  0.00000000000E+00  0.16168281498E+04  0.16168281498E+04  0.00000000000E+00 0.  1.
       21   -1    0    0  501  503  0.00000000000E+00  0.00000000000E+00 -0.11929136500E+03  0.11929136500E+03  0.00000000000E+00 0.  1.
  1000006    1    1    2  501    0  0.15724580742E+03 -0.12054349658E+03  0.40010234012E+03  0.56730843559E+03  0.35000000000E+03 0.  0.
 -1000006    1    1    2    0  502 -0.15724580742E+03  0.12054349658E+03  0.10974344447E+04  0.11688110792E+04  0.35000000000E+03 0.  0.
<scales pt_clust_1="13000.00000" pt_clust_2="13000.00000"></scales>
<clustering>
<clus scale="  402.190">  2  3  1 -1</clus>
<clus scale="  402.190">  1  3  2 -1</clus>
</clustering>
</event>
<event>
 6   2  0.3464723E-02  0.3708017E+03  0.7816531E-02  0.1054387E+00
       21   -1    0    0  501  503  0.00000000000E+00  0.00000000000E+00  0.20624606499E+03  0.20624606499E+03  0.00000000000E+00 0.  1.
        1   -1    0    0  504    0  0.00000000000E+00  0.00000000000E+00 -0.16310023542E+04  0.16310023542E+04  0.00000000000E+00 0.  1.
  1000006    1    1    2  501    0  0.22727367991E+03  0.48777362512E+02 -0.32935436816E+03  0.53386033426E+03  0.35000000000E+03 0.  0.
 -1000006    1    1    2    0  502  0.36647929703E+02 -0.89875032621E+02 -0.40532834467E+03  0.54425330430E+03  0.35000000000E+03 0.  0.
       21    1    1    2  504  503  0.15531611153E+02  0.27215411088E+02 -0.12106658852E+03  0.12505610102E+03  0.00000000000E+00 0.  1.
        1    1    1    2  502    0 -0.27945322077E+03  0.13882259021E+02 -0.56900698782E+03  0.63407867958E+03  0.00000000000E+00 0.  1.
<scales pt_clust_1="13000.00000" pt_clust_2="13000.00000" pt_clust_3="31.33544" pt_clust_4="274.37497"></scales>
<clustering>
<clus scale="   31.335">  2  5  1 -1</clus>
<clus scale="  274.375">  2  6  1 -1</clus>
<clus scale="  370.802">  1  3  2 -1</clus>
<clus scale="  370.802">  1  3  2 -1</clus>
</clustering>
</event>
<event>
 5   1  0.3464723E-02  0.3672249E+03  0.7816531E-02  0.1055759E+00
       21   -1    0    0  502  503  0.00000000000E+00  0.00000000000E+00  0.79896536566E+03  0.79896536566E+03  0.00000000000E+00 0. -1.
        2   -1    0    0  501    0  0.00000000000E+00  0.00000000000E+00 -0.24012868573E+03  0.24012868573E+03  0.00000000000E+00 0. -1.
  1000006    1    1    2  501    0  0.12394938077E+03 -0.21266366049E+02  0.35139007658E+02  0.37356452880E+03  0.35000000000E+03 0.  0.
 -1000006    1    1    2    0  503 -0.10657681240E+03 -0.12232607984E+02  0.50413281433E+03  0.62302339291E+03  0.35000000000E+03 0.  0.
        2    1    1    2  502    0 -0.17372568372E+02  0.33498974032E+02  0.19564857949E+02  0.42506129671E+02  0.00000000000E+00 0. -1.
<scales pt_clust_1="13000.00000" pt_clust_2="13000.00000" pt_clust_3="37.73576"></scales>
<clustering>
<clus scale="   37.736">  2  5  1 -1</clus>
<clus scale="  367.225">  2  3  1 -1</clus>
<clus scale="  367.225">  1  3  2 -1</clus>
</clustering>
</event>
<event>
 6   2  0.3464723E-02  0.8866354E+03  0.7816531E-02  0.9442444E-01
       21   -1    0    0  501  502  0.00000000000E+00  0.00000000000E+00  0.92208703743E+03  0.92208703743E+03  0.00000000000E+00 0.  1.
       21   -1    0    0  505  503  0.00000000000E+00  0.00000000000E+00 -0.12081693829E+04  0.12081693829E+04  0.00000000000E+00 0. -1.
  1000006    1    1    2  501    0  0.59897937006E+03  0.53979730014E+03  0.24581340433E+03  0.91273306105E+03  0.35000000000E+03 0.  0.
 -1000006    1    1    2    0  503 -0.59127454093E+03 -0.58782970491E+03 -0.47546289436E+03  0.10216233693E+04  0.35000000000E+03 0.  0.
       21    1    1    2  504  502 -0.61413434015E+02  0.62547772706E+02  0.30394308675E+02  0.92777409685E+02  0.00000000000E+00 0.  1.
       21    1    1    2  505  504  0.53708604894E+02 -0.14515367942E+02 -0.86827164150E+02  0.10312258036E+03  0.00000000000E+00 0.  1.
<scales pt_clust_1="13000.00000" pt_clust_2="13000.00000" pt_clust_3="86.31652" pt_clust_4="55.63551"></scales>
<clustering>
<clus scale="   55.636">  2  6  1 -1</clus>
<clus scale="   86.317">  1  5  2 -1</clus>
<clus scale="  886.635">  1  3  2 -1</clus>
<clus scale="  886.635">  1  3  2 -1</clus>
</clustering>
</event>
<event>
 6   2  0.3464723E-02  0.3668627E+03  0.7816531E-02  0.1055899E+00
       21   -1    0    0  505  502  0.00000000000E+00  0.00000000000E+00  0.57774666271E+03  0.57774666271E+03  0.00000000000E+00 0. -1.
       21   -1    0    0  504  503  0.00000000000E+00  0.00000000000E+00 -0.58926133994E+03  0.58926133994E+03  0.00000000000E+00 0. -1.
  1000006    1    1    2  501    0  0.23306912143E+02 -0.91158117217E+02 -0.25224364128E+03  0.44156524892E+03  0.35000000000E+03 0.  0.
 -1000006    1    1    2    0  502 -0.59580653364E+02  0.97176310291E+02  0.39781298924E+03  0.54198548315E+03  0.35000000000E+03 0.  0.
       21    1    1    2  504  501 -0.22538384911E+01  0.36820876177E+02 -0.68085008800E+02  0.77436587823E+02  0.00000000000E+00 0.  1.
       21    1    1    2  505  503  0.38527579712E+02 -0.42839069251E+02 -0.88999016396E+02  0.10602068276E+03  0.00000000000E+00 0. -1.
<scales pt_clust_1="13000.00000" pt_clust_2="13000.00000" pt_clust_3="36.88979" pt_clust_4="52.34208"></scales>
<clustering>
<clus scale="   36.890">  2  5  1 -1</clus>
<clus scale="   52.342">  2  6  1 -1</clus>
<clus scale="  366.863">  1  4  2 -1</clus>
<clus scale="  366.863">  1  3  2 -1</clus>
</clustering>
</event>
<event>
 4   0  0.3464723E-02  0.3515599E+03  0.7816531E-02  0.1061977E+00
       21   -1    0    0  501  502  0.00000000000E+00  0.00000000000E+00  0.24112858411E+03  0.24112858411E+03  0.00000000000E+00 0.  1.
       21   -1    0    0  502  503  0.00000000000E+00  0.00000000000E+00 -0.11272035266E+04  0.11272035266E+04  0.00000000000E+00 0.  1.
  1000006    1    1    2  501    0  0.11810029651E+02  0.30901604156E+02  0.62170022972E+02  0.35701470235E+03  0.35000000000E+03 0.  0.
 -1000006    1    1    2    0  503 -0.11810029651E+02 -0.30901604156E+02 -0.94824496544E+03  0.10113174083E+04  0.35000000000E+03 0.  0.
<scales pt_clust_1="13000.00000" pt_clust_2="13000.00000"></scales>
<clustering>
<clus scale="  351.560">  1  3  2 -1</clus>
<clus scale="  351.560">  1  3  2 -1</clus>
</clustering>
</event>
<event>
 6   2  0.3464723E-02  0.4750908E+03  0.7816531E-02  0.1020493E+00
        2   -1    0    0  503    0  0.00000000000E+00  0.00000000000E+00  0.77470818939E+03  0.77470818939E+03  0.00000000000E+00 0. -1.
        2   -1    0    0  501    0  0.00000000000E+00  0.00000000000E+00 -0.17594150345E+04  0.17594150345E+04  0.00000000000E+00 0.  1.
  1000006    1    1    2  501    0  0.36365659636E+03 -0.82408844379E+02 -0.64325699582E+03  0.82177667306E+03  0.35000000000E+03 0.  0.
 -1000006    1    1    2    0  502 -0.21409886095E+03 -0.11217341996E+03  0.21170770014E+03  0.47512245653E+03  0.35000000000E+03 0.  0.
        2    1    1    2  502    0 -0.12951237571E+03  0.88332066213E+02  0.32056091036E+03  0.35684073007E+03  0.00000000000E+00 0. -1.
        2    1    1    2  503    0 -0.20045359705E+02  0.10625019812E+03 -0.87371845976E+03  0.88038336421E+03  0.00000000000E+00 0.  1.
<scales pt_clust_1="13000.00000" pt_clust_2="13000.00000" pt_clust_3="158.34641" pt_clust_4="108.12456"></scales>
<clustering>
<clus scale="  108.125">  2  6  1 -1</clus>
<clus scale="  158.346">  1  5  2 -1</clus>
<clus scale="  475.091">  1  4  2 -1</clus>
<clus scale="  475.091">  1  3  2 -1</clus>
</clustering>
</event>
<event>
 4   0  0.3464723E-02  0.4110229E+03  0.7816531E-02  0.1040028E+00
       21   -1    0    0  501  502  0.00000000000E+00  0.00000000000E+00  0.92304298189E+03  0.92304298189E+03  0.00000000000E+00 0. -1.
       21   -1    0    0  502  503  0.00000000000E+00  0.00000000000E+00 -0.18811148772E+03  0.18811148772E+03  0.00000000000E+00 0. -1.
  1000006    1    1    2  501    0 -0.21404295237E+03 -0.25009173191E+02  0.45882452782E+03  0.61600307754E+03  0.35000000000E+03 0.  0.
 -1000006    1    1    2    0  503  0.21404295237E+03  0.25009173191E+02  0.27610696635E+03  0.49515139207E+03  0.35000000000E+03 0.  0.
<scales pt_clust_1="13000.00000" pt_clust_2="13000.00000"></scales>
<clustering>
<clus scale="  411.023">  1  3  2 -1</clus>
<clus scale="  411.023">  1  3  2 -1</clus>
</clustering>
</event>
<event>
 5   1  0.3464723E-02  0.5844684E+03  0.7816531E-02  0.9938164E-01
       21   -1    0    0  504  502  0.00000000000E+00  0.00000000000E+00  0.19454610649E+04  0.19454610649E+04  0.00000000000E+00 0. -1.
       21   -1    0    0  501  503  0.00000000000E+00  0.00000000000E+00 -0.67070966846E+03  0.67070966846E+03  0.00000000000E+00 0.  1.
  1000006    1    1    2  501    0  0.28468106758E+03 -0.33864211798E+03  0.39730664360E+03  0.68998142247E+03  0.35000000000E+03 0.  0.
 -1000006    1    1    2    0  502 -0.41380886093E+03  0.25574897332E+03  0.13243728637E+04  0.14536536014E+04  0.35000000000E+03 0.  0.
       21    1    1    2  504  503  0.12912779335E+03  0.82893144660E+02 -0.44692811088E+03  0.47253570948E+03  0.00000000000E+00 0.  1.
<scales pt_clust_1="13000.00000" pt_clust_2="13000.00000" pt_clust_3="153.44465"></scales>
<clustering>
<clus scale="  153.445">  2  5  1 -1</clus>
<clus scale="  584.468">  1  4  2 -1</clus>
<clus scale="  584.468">  1  3  2 -1</clus>
</clustering>
</event>
<event>
 4   0  0.3464723E-02  0.3606609E+03  0.7816531E-02  0.1058322E+00
       21   -1    0    0  501  502  0.00000000000E+00  0.00000000000E+00  0.12027904416E+04  0.12027904416E+04  0.00000000000E+00 0. -1.
       21   -1    0    0  502  503  0.00000000000E+00  0.00000000000E+00 -0.11413624802E+03  0.11413624802E+03  0.00000000000E+00 0. -1.
  1000006    1    1    2  501    0  0.56517081085E+02  0.66197605382E+02  0.69518304959E+03  0.78317033642E+03  0.35000000000E+03 0.  0.
 -1000006    1    1    2    0  503 -0.56517081085E+02 -0.66197605382E+02  0.39347114394E+03  0.53375635315E+03  0.35000000000E+03 0.  0.
<scales pt_clust_1="13000.00000" pt_clust_2="13000.00000"></scales>
<clustering>
<clus scale="  360.661">  1  3  2 -1</clus>
<clus scale="  360.661">  1  3  2 -1</clus>
</clustering>
</event>
<event>
 5   1  0.3464723E-02  0.4041434E+03  0.7816531E-02  0.1042354E+00
       -1   -1    0    0    0  501  0.00000000000E+00  0.00000000000E+00  0.15418899077E+04  0.15418899077E+04  0.00000000000E+00 0. -1.
        1   -1    0    0  503    0  0.00000000000E+00  0.00000000000E+00 -0.38956537727E+03  0.38956537727E+03  0.00000000000E+00 0.  1.
  1000006    1    1    2  502    0 -0.47444245935E+02 -0.18706962288E+03  0.10311017090E+04  0.11058556572E+04  0.35000000000E+03 0.  0.
 -1000006    1    1    2    0  501  0.31109231749E+02  0.22312052295E+03  0.38012524012E+03  0.56368940937E+03  0.35000000000E+03 0.  0.
       21    1    1    2  503  502  0.16335014186E+02 -0.36050900072E+02 -0.25890241870E+03  0.26191021838E+03  0.00000000000E+00 0.  1.
<scales pt_clust_1="13000.00000" pt_clust_2="13000.00000" pt_clust_3="39.57904"></scales>
<clustering>
<clus scale="   39.579">  2  5  1 -1</clus>
<clus scale="  653.263">  3  4 -1 -1</clus>
<clus scale="  404.143">  2  3  1 -1</clus>
</clustering>
</event>
<event>
 6   2  0.3464723E-02  0.3653530E+03  0.7816531E-02  0.1056484E+00
       21   -1    0    0  501  502  0.00000000000E+00  0.00000000000E+00  0.13540383567E+04  0.13540383567E+04  0.00000000000E+00 0. -1.
       21   -1    0    0  505  503  0.00000000000E+00  0.00000000000E+00 -0.74858276782E+03  0.74858276782E+03  0.00000000000E+00 0. -1.
  1000006    1    1    2  501    0  0.22493633244E+02 -0.84702242575E+02  0.89811757248E+03  0.96788202144E+03  0.35000000000E+03 0.  0.
 -1000006    1    1    2    0  504  0.10595438010E+03  0.15879505356E+03  0.30876444653E+03  0.50425953946E+03  0.35000000000E+03 0.  0.
       21    1    1    2  504  503 -0.16943295661E+02 -0.75038549031E+02 -0.21842941615E+03  0.23157994073E+03  0.00000000000E+00 0. -1.
       21    1    1    2  505  502 -0.11150471768E+03  0.94573804819E+00 -0.38299701393E+03  0.39889962292E+03  0.00000000000E+00 0. -1.
<scales pt_clust_1="13000.00000" pt_clust_2="13000.00000" pt_clust_3="76.92762" pt_clust_4="135.82717"></scales>
<clustering>
<clus scale="   76.928">  2  5  1 -1</clus>
<clus scale="  135.827">  2  6  1 -1</clus>
<clus scale="  365.353">  2  4  1 -1</clus>
<clus scale="  365.353">  1  3  2 -1</clus>
</clustering>
</event>
<event>
 5   1  0.3464723E-02  0.3536164E+03  0.7816531E-02  0.1061140E+00
       21   -1    0    0  504  502  0.00000000000E+00  0.00000000000E+00  0.26803217046E+03  0.26803217046E+03  0.00000000000E+00 0. -1.
       21   -1    0    0  502  503  0.00000000000E+00  0.00000000000E+00 -0.76848260352E+03  0.76848260352E+03  0.00000000000E+00 0. -1.
  1000006    1    1    2  501    0  0.30654439818E+02 -0.57677243009E+01 -0.15804145468E+03  0.38529217838E+03  0.35000000000E+03 0.  0.
 -1000006    1    1    2    0  503 -0.61565198910E+02 -0.20225740500E+01 -0.43009546017E+03  0.55792156203E+03  0.35000000000E+03 0.  0.
       21    1    1    2  504  501  0.30910759092E+02  0.77902983509E+01  0.87686481792E+02  0.93301033569E+02  0.00000000000E+00 0. -1.
<scales pt_clust_1="13000.00000" pt_clust_2="13000.00000" pt_clust_3="31.87732"></scales>
<clustering>
<clus scale="   31.877">  1  5  2 -1</clus>
<clus scale="  353.616">  2  4  1 -1</clus>
<clus scale="  353.616">  1  3  2 -1</clus>
</clustering>
</event>
<event>
 5   1  0.3464723E-02  0.3543317E+03  0.7816531E-02  0.1060851E+00
       21   -1    0    0  501  502  0.00000000000E+00  0.00000000000E+00  0.16539995603E+04  0.16539995603E+04  0.00000000000E+00 0.  1.
       21   -1    0    0  504  503  0.00000000000E+00  0.00000000000E+00 -0.18584397762E+03  0.18584397762E+03  0.00000000000E+00 0.  1.
  1000006    1    1    2  501    0 -0.54723845148E+02  0.47018370155E+02  0.99208311539E+03  0.10544829701E+04  0.35000000000E+03 0.  0.
 -1000006    1    1    2    0  503 -0.77433717162E+02 -0.68609922698E+02  0.52789246083E+03  0.64177391054E+03  0.35000000000E+03 0.  0.
       21    1    1    2  504  502  0.13215756231E+03  0.21591552542E+02 -0.51819993554E+02  0.14358665728E+03  0.00000000000E+00 0.  1.
<scales pt_clust_1="13000.00000" pt_clust_2="13000.00000" pt_clust_3="133.90973"></scales>
<clustering>
<clus scale="  133.910">  2  5  1 -1</clus>
<clus scale="  354.332">  2  4  1 -1</clus>
<clus scale="  354.332">  1  3  2 -1</clus>
</clustering>
</event>
<event>
 5   1  0.3464723E-02  0.6243592E+03  0.7816531E-02  0.9856119E-01
       21   -1    0    0  501  502  0.00000000000E+00  0.00000000000E+00  0.47925561955E+03  0.47925561955E+03  0.00000000000E+00 0.  1.
       21   -1    0    0  504  503  0.00000000000E+00  0.00000000000E+00 -0.12727306561E+04  0.12727306561E+04  0.00000000000E+00 0. -1.
  1000006    1    1    2  501    0  0.25596639640E+03 -0.48361577973E+03 -0.70514730541E+02  0.65335698183E+03  0.35000000000E+03 0.  0.
 -1000006    1    1    2    0  503 -0.33252936384E+03  0.38573952032E+03 -0.74966389404E+03  0.97152802810E+03  0.35000000000E+03 0.  0.
       21    1    1    2  504  502  0.76562967442E+02  0.97876259405E+02  0.26703588019E+02  0.12710126574E+03  0.00000000000E+00 0.  1.
<scales pt_clust_1="13000.00000" pt_clust_2="13000.00000" pt_clust_3="124.26444"></scales>
<clustering>
<clus scale="  124.264">  1  5  2 -1</clus>
<clus scale="  624.359">  1  3  2 -1</clus>
<clus scale="  624.359">  1  3  2 -1</clus>
</clustering>
</event>
<event>
 5   1  0.3464723E-02  0.3687366E+03  0.7816531E-02  0.1055177E+00
       21   -1    0    0  504  502  0.00000000000E+00  0.00000000000E+00  0.11533850428E+04  0.11533850428E+04  0.00000000000E+00 0.  1.
       21   -1    0    0  501  503  0.00000000000E+00  0.00000000000E+00 -0.20557032087E+03  0.20557032087E+03  0.00000000000E+00 0.  1.
  1000006    1    1    2  501    0 -0.22104401696E+02  0.13435980041E+03  0.96301288103E+02  0.38770491180E+03  0.35000000000E+03 0.  0.
 -1000006    1    1    2    0  502 -0.21717260555E+02 -0.11036753286E+03  0.84417864585E+03  0.92075524317E+03  0.35000000000E+03 0.  0.
       21    1    1    2  504  503  0.43821662251E+02 -0.23992267554E+02  0.73347879571E+01  0.50495208676E+02  0.00000000000E+00 0.  1.
<scales pt_clust_1="13000.00000" pt_clust_2="13000.00000" pt_clust_3="49.95965"></scales>
<clustering>
<clus scale="   49.960">  2  5  1 -1</clus>
<clus scale="  368.737">  1  4  2 -1</clus>
<clus scale="  368.737">  1  3  2 -1</clus>
</clustering>
</event>
<event>
 4   0  0.3464723E-02  0.3631636E+03  0.7816531E-02  0.1057338E+00
       21   -1    0    0  503  502  0.00000000000E+00  0.00000000000E+00  0.13739744826E+03  0.13739744826E+03  0.00000000000E+00 0.  1.
       21   -1    0    0  501  503  0.00000000000E+00  0.00000000000E+00 -0.10871362982E+04  0.10871362982E+04  0.00000000000E+00 0.  1.
  1000006    1    1    2  501    0 -0.91173384510E+02 -0.32790211435E+02 -0.68433111684E+03  0.77472373236E+03  0.35000000000E+03 0.  0.
 -1000006    1    1    2    0  502  0.91173384510E+02  0.32790211435E+02 -0.26540773314E+03  0.44981001414E+03  0.35000000000E+03 0.  0.
<scales pt_clust_1="13000.00000" pt_clust_2="13000.00000"></scales>
<clustering>
<clus scale="  363.164">  2  3  1 -1</clus>
<clus scale="  363.164">  1  3  2 -1</clus>
</clustering>
</event>
<event>
 6   2  0.3464723E-02  0.5448301E+03  0.7816531E-02  0.1016180E+00
       21   -1    0    0  503  502  0.00000000000E+00  0.00000000000E+00  0.26492052973E+04  0.26492052973E+04  0.00000000000E+00 0. -1.
       21   -1    0    0  505  503  0.00000000000E+00  0.00000000000E+00 -0.41092202012E+03  0.41092202012E+03  0.00000000000E+00 0. -1.
  1000006    1    1    2  501    0  0.79942346051E+02 -0.42754021671E+03  0.34395239364E+03  0.65573215926E+03  0.35000000000E+03 0.  0.
 -1000006    1    1    2    0  504  0.62154618325E+02 -0.15345326204E+03  0.54844685831E+03  0.67134570573E+03  0.35000000000E+03 0.  0.
       21    1    1    2  504  502 -0.52341655812E+02  0.18114491765E+03  0.13079807472E+04  0.13215017083E+04  0.00000000000E+00 0. -1.
       21    1    1    2  505  501 -0.89755308563E+02  0.39984856110E+03  0.37903278097E+02  0.41154774416E+03  0.00000000000E+00 0. -1.
<scales pt_clust_1="13000.00000" pt_clust_2="13000.00000" pt_clust_3="188.55538" pt_clust_4="417.54024"></scales>
<clustering>
<clus scale="  188.555">  1  5  2 -1</clus>
<clus scale="  359.103">  1  4  2 -1</clus>
<clus scale="  417.540">  2  6  1 -1</clus>
<clus scale="  544.830">  1  3  2 -1</clus>
</clustering>
</event>
<event>
 6   2  0.3464723E-02  0.3546926E+03  0.7816531E-02  0.1060705E+00
       21   -1    0    0  502  503  0.00000000000E+00  0.00000000000E+00  0.79891001320E+03  0.79891001320E+03  0.00000000000E+00 0.  1.
        2   -1    0    0  504    0  0.00000000000E+00  0.00000000000E+00 -0.26458655117E+04  0.26458655117E+04  0.00000000000E+00 0. -1.
  1000006    1    1    2  501    0  0.15200867876E+03  0.13140462673E+03 -0.16705191740E+03  0.43678387957E+03  0.35000000000E+03 0.  0.
 -1000006    1    1    2    0  503  0.10396604683E+02 -0.44425650596E+02  0.60539580114E+03  0.70077514500E+03  0.35000000000E+03 0.  0.
       21    1    1    2  504  501 -0.31238137238E+02 -0.45411376403E+02 -0.77324186133E+02  0.94958117537E+02  0.00000000000E+00 0. -1.
        2    1    1    2  502    0 -0.13116714621E+03 -0.41567599732E+02 -0.22079751961E+04  0.22122583828E+04  0.00000000000E+00 0. -1.
<scales pt_clust_1="13000.00000" pt_clust_2="13000.00000" pt_clust_3="55.11819" pt_clust_4="177.57462"></scales>
<clustering>
<clus scale="   55.118">  2  5  1 -1</clus>
<clus scale="  177.575">  2  6  1 -1</clus>
<clus scale="  354.693">  1  4  2 -1</clus>
<clus scale="  354.693">  1  3  2 -1</clus>
</clustering>
</event>
<event>
 4   0  0.3464723E-02  0.3501230E+03  0.7816531E-02  0.1062565E+00
       21   -1    0    0  503  502  0.00000000000E+00  0.00000000000E+00  0.75898007433E+03  0.75898007433E+03  0.00000000000E+00 0.  1.
       21   -1    0    0  501  503  0.00000000000E+00  0.00000000000E+00 -0.21267866343E+03  0.21267866343E+03  0.00000000000E+00 0.  1.
  1000006    1    1    2  501    0 -0.42620003453E+01  0.82428545202E+01  0.34860749331E+02  0.35185420438E+03  0.35000000000E+03 0.  0.
 -1000006    1    1    2    0  502  0.42620003453E+01 -0.82428545202E+01  0.51144066156E+03  0.61980453338E+03  0.35000000000E+03 0.  0.
<scales pt_clust_1="13000.00000" pt_clust_2="13000.00000"></scales>
<clustering>
<clus scale="  350.123">  2  3  1 -1</clus>
<clus scale="  350.123">  1  3  2 -1</clus>
</clustering>
</event>
<event>
 5   1  0.3464723E-02  0.3932532E+03  0.7816531E-02  0.1046141E+00
       21   -1    0    0  503  502  0.00000000000E+00  0.00000000000E+00  0.16006328764E+03  0.16006328764E+03  0.00000000000E+00 0. -1.
       21   -1    0    0  501  503  0.00000000000E+00  0.00000000000E+00 -0.11280821776E+04  0.11280821776E+04  0.00000000000E+00 0. -1.
  1000006    1    1    2  501    0  0.17896514665E+03 -0.55421775764E+02 -0.56800060265E+03  0.69298252615E+03  0.35000000000E+03 0.  0.
 -1000006    1    1    2    0  504 -0.17188714490E+03  0.52162428884E+01 -0.35576804811E+03  0.52786674818E+03  0.35000000000E+03 0.  0.
       21    1    1    2  504  502 -0.70780017421E+01  0.50205532875E+02 -0.44250239164E+02  0.67296190873E+02  0.00000000000E+00 0. -1.
<scales pt_clust_1="13000.00000" pt_clust_2="13000.00000" pt_clust_3="50.70201"></scales>
<clustering>
<clus scale="   50.702">  1  5  2 -1</clus>
<clus scale="  393.253">  2  3  1 -1</clus>
<clus scale="  393.253">  1  3  2 -1</clus>
</clustering>
</event>
<event>
 6   2  0.3464723E-02  0.6638880E+03  0.7816531E-02  0.9781063E-01
        1   -1    0    0  504    0  0.00000000000E+00  0.00000000000E+00  0.40611072851E+04  0.40611072851E+04  0.00000000000E+00 0.  1.
       21   -1    0    0  501  503  0.00000000000E+00  0.00000000000E+00 -0.22968794275E+03  0.22968794275E+03  0.00000000000E+00 0. -1.
  1000006    1    1    2  501    0 -0.29546125388E+02  0.50741384476E+03  0.76339418892E+03  0.98163764754E+03  0.35000000000E+03 0.  0.
 -1000006    1    1    2    0  502 -0.11223835502E+03 -0.63061575100E+03  0.11055177507E+04  0.13247426810E+04  0.35000000000E+03 0.  0.
       21    1    1    2  504  503 -0.23240717798E+02  0.30343681202E+02  0.51943330195E+02  0.64490150444E+02  0.00000000000E+00 0. -1.
        1    1    1    2  502    0  0.16502519820E+03  0.92858225038E+02  0.19105640725E+04  0.19199247489E+04  0.00000000000E+00 0.  1.
<scales pt_clust_1="13000.00000" pt_clust_2="13000.00000" pt_clust_3="38.22133" pt_clust_4="189.24579"></scales>
<clustering>
<clus scale="   38.221">  2  5  1 -1</clus>
<clus scale="  189.246">  1  6  2 -1</clus>
<clus scale="  663.888">  1  4  2 -1</clus>
<clus scale="  663.888">  2  3  1 -1</clus>
</clustering>
</event>
<event>
 5   1  0.3464723E-02  0.3808119E+03  0.7816531E-02  0.1050634E+00
       21   -1    0    0  503  502  0.00000000000E+00  0.00000000000E+00  0.26501123357E+03  0.26501123357E+03  0.00000000000E+00 0. -1.
       21   -1    0    0  504  503  0.00000000000E+00  0.00000000000E+00 -0.10811597307E+04  0.10811597307E+04  0.00000000000E+00 0. -1.
  1000006    1    1    2  501    0  0.16448948820E+03  0.38975358104E+02 -0.19815045069E+03  0.43627912095E+03  0.35000000000E+03 0.  0.
 -1000006    1    1    2    0  502 -0.12621936323E+03 -0.51471432526E+02 -0.97789863611E+02  0.38812819203E+03  0.35000000000E+03 0.  0.
       21    1    1    2  504  501 -0.38270124964E+02  0.12496074423E+02 -0.52020818283E+03  0.52176365131E+03  0.00000000000E+00 0. -1.
<scales pt_clust_1="13000.00000" pt_clust_2="13000.00000" pt_clust_3="40.25859"></scales>
<clustering>
<clus scale="   40.259">  2  5  1 -1</clus>
<clus scale="  380.812">  2  3  1 -1</clus>
<clus scale="  380.812">  1  3  2 -1</clus>
</clustering>
</event>
<event>
 6   2  0.3464723E-02  0.3736104E+03  0.7816531E-02  0.1053321E+00
       21   -1    0    0  504  502  0.00000000000E+00  0.00000000000E+00  0.24566626527E+04  0.24566626527E+04  0.00000000000E+00 0. -1.
       21   -1    0    0  505  503  0.00000000000E+00  0.00000000000E+00 -0.17143760065E+03  0.17143760065E+03  0.00000000000E+00 0. -1.
  1000006    1    1    2  501    0  0.17192171467E+03 -0.32919951302E+02  0.13364882679E+04  0.13926024879E+04  0.35000000000E+03 0.  0.
 -1000006    1    1    2    0  503 -0.12483068136E+03 -0.27645330846E+02  0.22570113420E+03  0.43564660599E+03  0.35000000000E+03 0.  0.
       21    1    1    2  504  501 -0.78649038077E+02 -0.64147133375E+02  0.63712688735E+03  0.64515982244E+03  0.00000000000E+00 0.  1.
       21    1    1    2  505  502  0.31558004767E+02  0.12471241552E+03  0.85908762633E+02  0.15469133702E+03  0.00000000000E+00 0. -1.
<scales pt_clust_1="13000.00000" pt_clust_2="13000.00000" pt_clust_3="101.49151" pt_clust_4="123.30940"></scales>
<clustering>
<clus scale="  101.492">  1  5  2 -1</clus>
<clus scale="  123.309">  2  6  1 -1</clus>
<clus scale="  373.610">  2  4  1 -1</clus>
<clus scale="  373.610">  1  3  2 -1</clus>
</clustering>
</event>
<event>
 4   0  0.3464723E-02  0.4914141E+03  0.7816531E-02  0.1016045E+00
       21   -1    0    0  503  502  0.00000000000E+00  0.00000000000E+00  0.28181291733E+03  0.28181291733E+03  0.00000000000E+00 0.  1.
       21   -1    0    0  501  503  0.00000000000E+00  0.00000000000E+00 -0.10619741555E+04  0.10619741555E+04  0.00000000000E+00 0. -1.
  1000006    1    1    2  501    0  0.69036863158E+02 -0.33796704019E+03 -0.68533084492E+03  0.84330669138E+03  0.35000000000E+03 0.  0.
 -1000006    1    1    2    0  502 -0.69036863158E+02  0.33796704019E+03 -0.94830393256E+02  0.50048038145E+03  0.35000000000E+03 0.  0.
<scales pt_clust_1="13000.00000" pt_clust_2="13000.00000"></scales>
<clustering>
<clus scale="  491.414">  2  3  1 -1</clus>
<clus scale="  491.414">  1  3  2 -1</clus>
</clustering>
</event>
<event>
 5   1  0.3464723E-02  0.4259322E+03  0.7816531E-02  0.1035153E+00
        2   -1    0    0  501    0  0.00000000000E+00  0.00000000000E+00  0.11168727035E+04  0.11168727035E+04  0.00000000000E+00 0.  1.
       21   -1    0    0  502  503  0.00000000000E+00  0.00000000000E+00 -0.25631574456E+03  0.25631574456E+03  0.00000000000E+00 0.  1.
  1000006    1    1    2  501    0 -0.23101928231E+03  0.31560190110E+02  0.31335595373E+03  0.52445963442E+03  0.35000000000E+03 0.  0.
 -1000006    1    1    2    0  503  0.23458351714E+03 -0.90280941760E+02  0.62005920274E+03  0.75508508783E+03  0.35000000000E+03 0.  0.
        2    1    1    2  502    0 -0.35642348359E+01  0.58720751651E+02 -0.72858197511E+02  0.93643725839E+02  0.00000000000E+00 0.  1.
<scales pt_clust_1="13000.00000" pt_clust_2="13000.00000" pt_clust_3="58.82882"></scales>
<clustering>
<clus scale="   58.829">  2  5  1 -1</clus>
<clus scale="  628.498">  3  4 -1 -1</clus>
<clus scale="  425.932">  2  3  1 -1</clus>
</clustering>
</event>
<event>
 6   2  0.3464723E-02  0.3526527E+03  0.7816531E-02  0.1061532E+00
       21   -1    0    0  504  503  0.00000000000E+00  0.00000000000E+00  0.24708427168E+03  0.24708427168E+03  0.00000000000E+00 0. -1.
       -3   -1    0    0    0  501  0.00000000000E+00  0.00000000000E+00 -0.11984361284E+04  0.11984361284E+04  0.00000000000E+00 0. -1.
  1000006    1    1    2  502    0 -0.26723966150E+02  0.45836964612E+02 -0.25527246832E+03  0.43643926355E+03  0.35000000000E+03 0.  0.
 -1000006    1    1    2    0  503 -0.11137054034E+03  0.20995285395E+02 -0.24319789759E+03  0.44100954259E+03  0.35000000000E+03 0.  0.
       21    1    1    2  504  501  0.82587378995E+02 -0.34673789449E+02  0.19238192711E+02  0.91613617453E+02  0.00000000000E+00 0. -1.
       -3    1    1    2    0  502  0.55507127493E+02 -0.32158460559E+02 -0.47211968353E+03  0.47645797650E+03  0.00000000000E+00 0. -1.
<scales pt_clust_1="13000.00000" pt_clust_2="13000.00000" pt_clust_3="92.75149" pt_clust_4="64.14989"></scales>
<clustering>
<clus scale="   64.150">  2  6  1 -1</clus>
<clus scale="   92.751">  1  5  2 -1</clus>
<clus scale="  352.653">  1  4  2 -1</clus>
<clus scale="  352.653">  1  3  2 -1</clus>
</clustering>
</event>
<event>
 5   1  0.3464723E-02  0.3830844E+03  0.7816531E-02  0.1049800E+00
       21   -1    0    0  501  502  0.00000000000E+00  0.00000000000E+00  0.56098805894E+03  0.56098805894E+03  0.00000000000E+00 0.  1.
       21   -1    0    0  504  503  0.00000000000E+00  0.00000000000E+00 -0.36505292942E+03  0.36505292942E+03  0.00000000000E+00 0.  1.
  1000006    1    1    2  501    0  0.87617785062E+02  0.87196247170E+02  0.11617687289E+03  0.38894360462E+03  0.35000000000E+03 0.  0.
 -1000006    1    1    2    0  503 -0.16743304840E+03 -0.91635243919E+02  0.15460309367E+03  0.42758971011E+03  0.35000000000E+03 0.  0.
       21    1    1    2  504  502  0.79815263336E+02  0.44389967487E+01 -0.74844837030E+02  0.10950767363E+03  0.00000000000E+00 0.  1.
<scales pt_clust_1="13000.00000" pt_clust_2="13000.00000" pt_clust_3="79.93861"></scales>
<clustering>
<clus scale="   79.939">  2  5  1 -1</clus>
<clus scale="  383.084">  1  3  2 -1</clus>
<clus scale="  383.084">  1  3  2 -1</clus>
</clustering>
</event>
<event>
 5   1  0.3464723E-02  0.3870515E+03  0.7816531E-02  0.1048358E+00
       21   -1    0    0  504  502  0.00000000000E+00  0.00000000000E+00  0.23352503196E+03  0.23352503196E+03  0.00000000000E+00 0.  1.
       21   -1    0    0  501  503  0.00000000000E+00  0.00000000000E+00 -0.72106395141E+03  0.72106395141E+03  0.00000000000E+00 0.  1.
  1000006    1    1    2  501    0  0.13172531274E+03  0.62300873319E+02 -0.28774462813E+03  0.47595160243E+03  0.35000000000E+03 0.  0.
 -1000006    1    1    2    0  502 -0.16170228505E+03 -0.79368101152E+02 -0.15728567990E+03  0.42389351207E+03  0.35000000000E+03 0.  0.
       21    1    1    2  504  503  0.29976972316E+02  0.17067227832E+02 -0.42508611418E+02  0.54743868878E+02  0.00000000000E+00 0.  1.
<scales pt_clust_1="13000.00000" pt_clust_2="13000.00000" pt_clust_3="34.49506"></scales>
<clustering>
<clus scale="   34.495">  2  5  1 -1</clus>
<clus scale="  387.052">  2  3  1 -1</clus>
<clus scale="  387.052">  1  3  2 -1</clus>
</clustering>
</event>
<event>
 6   2  0.3464723E-02  0.5439824E+03  0.7816531E-02  0.1002896E+00
       21   -1    0    0  505  502  0.00000000000E+00  0.00000000000E+00  0.24998891783E+04  0.24998891783E+04  0.00000000000E+00 0. -1.
       21   -1    0    0  504  503  0.00000000000E+00  0.00000000000E+00 -0.23926320013E+03  0.23926320013E+03  0.00000000000E+00 0.  1.
  1000006    1    1    2  501    0 -0.42950457683E+03  0.30580303352E+03  0.76913416175E+03  0.99602059999E+03  0.35000000000E+03 0.  0.
 -1000006    1    1    2    0  503  0.27636067504E+03 -0.21531535263E+03  0.41146627052E+03  0.64384813083E+03  0.35000000000E+03 0.  0.
       21    1    1    2  504  502  0.12308648345E+02 -0.58439408452E+02  0.27594010749E+03  0.28232890431E+03  0.00000000000E+00 0. -1.
       21    1    1    2  505  501  0.14083525344E+03 -0.32048272435E+02  0.80408543836E+03  0.81695474327E+03  0.00000000000E+00 0. -1.
<scales pt_clust_1="13000.00000" pt_clust_2="13000.00000" pt_clust_3="59.72158" pt_clust_4="154.82002"></scales>
<clustering>
<clus scale="   59.722">  1  5  2 -1</clus>
<clus scale="  154.820">  1  6  2 -1</clus>
<clus scale="  543.982">  1  3  2 -1</clus>
<clus scale="  543.982">  1  3  2 -1</clus>
</clustering>
</event>
<event>
 4   0  0.3464723E-02  0.4240603E+03  0.7816531E-02  0.1035753E+00
        2   -1    0    0  502    0  0.00000000000E+00  0.00000000000E+00  0.54330858871E+03  0.54330858871E+03  0.00000000000E+00 0.  1.
       -2   -1    0    0    0  501  0.00000000000E+00  0.00000000000E+00 -0.46280314568E+03  0.46280314568E+03  0.00000000000E+00 0. -1.
  1000006    1    1    2  502    0 -0.20088811741E+03 -0.13027327644E+03  0.30872852696E+03  0.52453833571E+03  0.35000000000E+03 0.  0.
 -1000006    1    1    2    0  501  0.20088811741E+03  0.13027327644E+03 -0.22822308393E+03  0.48157339868E+03  0.35000000000E+03 0.  0.
<scales pt_clust_1="13000.00000" pt_clust_2="13000.00000"></scales>
<clustering>
<clus scale="  798.924">  3  4 -1 -1</clus>
<clus scale="  424.060">  1  3  2 -1</clus>
</clustering>
</event>
<event>
 4   0  0.3464723E-02  0.3941333E+03  0.7816531E-02  0.1045830E+00
       21   -1    0    0  501  502  0.00000000000E+00  0.00000000000E+00  0.36930910578E+03  0.36930910578E+03  0.00000000000E+00 0.  1.
       21   -1    0    0  502  503  0.00000000000E+00  0.00000000000E+00 -0.55121148538E+03  0.55121148538E+03  0.00000000000E+00 0.  1.
  1000006    1    1    2  501    0 -0.12290361820E+03  0.13317573759E+03  0.13307126211E+03  0.41599163122E+03  0.35000000000E+03 0.  0.
 -1000006    1    1    2    0  503  0.12290361820E+03 -0.13317573759E+03 -0.31497364170E+03  0.50452895994E+03  0.35000000000E+03 0.  0.
<scales pt_clust_1="13000.00000" pt_clust_2="13000.00000"></scales>
<clustering>
<clus scale="  394.133">  1  3  2 -1</clus>
<clus scale="  394.133">  1  3  2 -1</clus>
</clustering>
</event>
<event>
 6   2  0.3464723E-02  0.3573053E+03  0.7816531E-02  0.1059656E+00
       21   -1    0    0  504  503  0.00000000000E+00  0.00000000000E+00  0.19101501093E+04  0.19101501093E+04  0.00000000000E+00 0.  1.
       -4   -1    0    0    0  501  0.00000000000E+00  0.00000000000E+00 -0.12073645847E+03  0.12073645847E+03  0.00000000000E+00 0.  1.
  1000006    1    1    2  502    0  0.35000027248E+02 -0.31210868757E+01  0.38444844984E+03  0.52109054268E+03  0.35000000000E+03 0.  0.
 -1000006    1    1    2    0  501 -0.12891501607E+03  0.48860999432E+02  0.74891617245E+03  0.83808228235E+03  0.35000000000E+03 0.  0.
       21    1    1    2  504  502  0.36787312591E+02 -0.12904566486E+02  0.51001029809E+03  0.51149813134E+03  0.00000000000E+00 0.  1.
       -4    1    1    2    0  503  0.57127676232E+02 -0.32835346070E+02  0.14603873050E+03  0.16021561144E+03  0.00000000000E+00 0.  1.
<scales pt_clust_1="13000.00000" pt_clust_2="13000.00000" pt_clust_3="38.98505" pt_clust_4="70.08983"></scales>
<clustering>
<clus scale="   38.985">  1  5  2 -1</clus>
<clus scale="   70.090">  1  6  2 -1</clus>
<clus scale="  429.445">  3  4 -1 -1</clus>
<clus scale="  357.305">  1  3  2 -1</clus>
</clustering>
</event>
<event>
 5   1  0.3464723E-02  0.3513710E+03  0.7816531E-02  0.1062054E+00
        2   -1    0    0  501    0  0.00000000000E+00  0.00000000000E+00  0.58137130890E+03  0.58137130890E+03  0.00000000000E+00 0. -1.
       21   -1    0    0  502  503  0.00000000000E+00  0.00000000000E+00 -0.16635108967E+04  0.16635108967E+04  0.00000000000E+00 0.  1.
  1000006    1    1    2  501    0 -0.28774304564E+02  0.29576318049E+02 -0.71416828804E+03  0.79639127496E+03  0.35000000000E+03 0.  0.
 -1000006    1    1    2    0  503 -0.62507737372E+01 -0.29410914110E+02 -0.87363440005E+03  0.94161623764E+03  0.35000000000E+03 0.  0.
        2    1    1    2  502    0  0.35025078301E+02 -0.16540393882E+00  0.50566310026E+03  0.50687469303E+03  0.00000000000E+00 0. -1.
<scales pt_clust_1="13000.00000" pt_clust_2="13000.00000" pt_clust_3="35.02547"></scales>
<clustering>
<clus scale="   35.025">  1  5  2 -1</clus>
<clus scale="  351.371">  1  3  2 -1</clus>
<clus scale="  351.371">  2  3  1 -1</clus>
</clustering>
</event>
<event>
 5   1  0.3464723E-02  0.3678922E+03  0.7816531E-02  0.1055502E+00
       21   -1    0    0  501  503  0.00000000000E+00  0.00000000000E+00  0.60811636371E+02  0.60811636371E+02  0.00000000000E+00 0. -1.
       -3   -1    0    0    0  501  0.00000000000E+00  0.00000000000E+00 -0.27691510135E+04  0.27691510135E+04  0.00000000000E+00 0. -1.
  1000006    1    1    2  502    0 -0.53789896007E+02  0.12691681544E+03 -0.15067506018E+04  0.15529966539E+04  0.35000000000E+03 0.  0.
 -1000006    1    1    2    0  503  0.56004006257E+01 -0.10080279057E+03 -0.90871199407E+03  0.97900462473E+03  0.35000000000E+03 0.  0.
       -3    1    1    2    0  502  0.48189495381E+02 -0.26114024871E+02 -0.29287678122E+03  0.29796137122E+03  0.00000000000E+00 0. -1.
<scales pt_clust_1="13000.00000" pt_clust_2="13000.00000" pt_clust_3="54.81031"></scales>
<clustering>
<clus scale="   54.810">  2  5  1 -1</clus>
<clus scale="  367.892">  2  3  1 -1</clus>
<clus scale="  367.892">  1  3  2 -1</clus>
</clustering>
</event>
<event>
 5   1  0.3464723E-02  0.4058984E+03  0.7816531E-02  0.1041756E+00
       21   -1    0    0  504  502  0.00000000000E+00  0.00000000000E+00  0.68950061312E+03  0.68950061312E+03  0.00000000000E+00 0. -1.
       21   -1    0    0  502  503  0.00000000000E+00  0.00000000000E+00 -0.38371019262E+03  0.38371019262E+03  0.00000000000E+00 0. -1.
  1000006    1    1    2  501    0 -0.19435765220E+03  0.63805716156E+02  0.34597339855E+03  0.53295746442E+03  0.35000000000E+03 0.  0.
 -1000006    1    1    2    0  503  0.17753633201E+03 -0.10675533988E+03 -0.14012912481E+03  0.43017673507E+03  0.35000000000E+03 0.  0.
       21    1    1    2  504  501  0.16821320190E+02  0.42949623721E+02  0.99946146755E+02  0.11007660624E+03  0.00000000000E+00 0. -1.
<scales pt_clust_1="13000.00000" pt_clust_2="13000.00000" pt_clust_3="46.12621"></scales>
<clustering>
<clus scale="   46.126">  1  5  2 -1</clus>
<clus scale="  405.898">  2  4  1 -1</clus>
<clus scale="  405.898">  1  3  2 -1</clus>
</clustering>
</event>
<event>
 4   0  0.3464723E-02  0.3729846E+03  0.7816531E-02  0.1053558E+00
       21   -1    0    0  501  502  0.00000000000E+00  0.00000000000E+00  0.17775909852E+03  0.17775909852E+03  0.00000000000E+00 0.  1.
       21   -1    0    0  502  503  0.00000000000E+00  0.00000000000E+00 -0.85412685589E+03  0.85412685589E+03  0.00000000000E+00 0.  1.
  1000006    1    1    2  501    0  0.56680234810E+02  0.11577938578E+03 -0.18889767907E+03  0.41809071784E+03  0.35000000000E+03 0.  0.
 -1000006    1    1    2    0  503 -0.56680234810E+02 -0.11577938578E+03 -0.48747007830E+03  0.61379523656E+03  0.35000000000E+03 0.  0.
<scales pt_clust_1="13000.00000" pt_clust_2="13000.00000"></scales>
<clustering>
<clus scale="  372.985">  1  3  2 -1</clus>
<clus scale="  372.985">  1  3  2 -1</clus>
</clustering>
</event>
<event>
 6   2  0.3464723E-02  0.3885303E+03  0.7816531E-02  0.1047825E+00
       21   -1    0    0  505  502  0.00000000000E+00  0.00000000000E+00  0.34410876776E+03  0.34410876776E+03  0.00000000000E+00 0. -1.
       21   -1    0    0  501  503  0.00000000000E+00  0.00000000000E+00 -0.15910765706E+04  0.15910765706E+04  0.00000000000E+00 0. -1.
  1000006    1    1    2  501    0 -0.23595468286E+03  0.18100220772E+03 -0.43160585463E+03  0.63025393717E+03  0.35000000000E+03 0.  0.
 -1000006    1    1    2    0  502  0.11055280366E+03  0.15179565958E+03 -0.81116292253E+02  0.40539326281E+03  0.35000000000E+03 0.  0.
       21    1    1    2  504  503  0.87664617233E+02 -0.36326313165E+03 -0.75831699174E+03  0.84539330959E+03  0.00000000000E+00 0. -1.
       21    1    1    2  505  504  0.37737261965E+02  0.30465264345E+02  0.24071335829E+02  0.54144828754E+02  0.00000000000E+00 0. -1.
<scales pt_clust_1="13000.00000" pt_clust_2="13000.00000" pt_clust_3="370.78033" pt_clust_4="48.49983"></scales>
<clustering>
<clus scale="   48.500">  1  6  2 -1</clus>
<clus scale="  370.780">  2  5  1 -1</clus>
<clus scale="  388.530">  2  3  1 -1</clus>
<clus scale="  388.530">  1  3  2 -1</clus>
</clustering>
</event>
<event>
 6   2  0.3464723E-02  0.3894268E+03  0.7816531E-02  0.1047504E+00
       21   -1    0    0  504  502  0.00000000000E+00  0.00000000000E+00  0.49453453298E+03  0.49453453298E+03  0.00000000000E+00 0.  1.
       21   -1    0    0  505  503  0.00000000000E+00  0.00000000000E+00 -0.81427839969E+03  0.81427839969E+03  0.00000000000E+00 0.  1.
  1000006    1    1    2  501    0  0.57023229248E+02  0.10032309991E+03  0.11619476330E+03  0.38641635068E+03  0.35000000000E+03 0.  0.
 -1000006    1    1    2    0  503  0.11211841150E+03 -0.13221516102E+03 -0.35304191337E+03  0.52648834706E+03  0.35000000000E+03 0.  0.
       21    1    1    2  504  501 -0.45152394403E+02  0.16601048613E+03  0.38885961903E+02  0.17638122989E+03  0.00000000000E+00 0.  1.
       21    1    1    2  505  502 -0.12398924635E+03 -0.13411842503E+03 -0.12178267855E+03  0.21952700503E+03  0.00000000000E+00 0.  1.
<scales pt_clust_1="13000.00000" pt_clust_2="13000.00000" pt_clust_3="172.04133" pt_clust_4="172.11273"></scales>
<clustering>
<clus scale="  172.041">  1  5  2 -1</clus>
<clus scale="  172.113">  2  6  1 -1</clus>
<clus scale="  389.427">  1  3  2 -1</clus>
<clus scale="  389.427">  1  3  2 -1</clus>
</clustering>
</event>
<event>
 6   2  0.3464723E-02  0.4220553E+03  0.7816531E-02  0.1036399E+00
       21   -1    0    0  501  502  0.00000000000E+00  0.00000000000E+00  0.85932013744E+03  0.85932013744E+03  0.00000000000E+00 0.  1.
       21   -1    0    0  505  503  0.00000000000E+00  0.00000000000E+00 -0.43891822228E+03  0.43891822228E+03  0.00000000000E+00 0.  1.
  1000006    1    1    2  501    0  0.17488339564E+03  0.13636578574E+03  0.62364960315E+03  0.74874472091E+03  0.35000000000E+03 0.  0.
 -1000006    1    1    2    0  503 -0.17103016445E+03 -0.11176528766E+03 -0.16526387542E+03  0.43766990438E+03  0.35000000000E+03 0.  0.
       21    1    1    2  504  502  0.14634105782E+02  0.27014793276E+02  0.16206339424E+02  0.34736170562E+02  0.00000000000E+00 0. -1.
       21    1    1    2  505  504 -0.18487336972E+02 -0.51615291348E+02 -0.54190151995E+02  0.77087563864E+02  0.00000000000E+00 0.  1.
<scales pt_clust_1="13000.00000" pt_clust_2="13000.00000" pt_clust_3="30.72387" pt_clust_4="54.40937"></scales>
<clustering>
<clus scale="   30.724">  1  5  2 -1</clus>
<clus scale="   54.409">  2  6  1 -1</clus>
<clus scale="  422.055">  1  3  2 -1</clus>
<clus scale="  422.055">  1  3  2 -1</clus>
</clustering>
</event>
<event>
 5   1  0.3464723E-02  0.3558585E+03  0.7816531E-02  0.1060236E+00
       21   -1    0    0  502  503  0.00000000000E+00  0.00000000000E+00  0.72819081263E+03  0.72819081263E+03  0.00000000000E+00 0.  1.
       -1   -1    0    0    0  501  0.00000000000E+00  0.00000000000E+00 -0.35381799200E+03  0.35381799200E+03  0.00000000000E+00 0.  1.
  1000006    1    1    2  502    0 -0.74246664443E+02  0.39045334144E+02  0.45745939454E+03  0.58207061681E+03  0.35000000000E+03 0.  0.
 -1000006    1    1    2    0  501  0.18752887331E+02  0.18059207034E+01  0.46097223774E+02  0.35352494420E+03  0.35000000000E+03 0.  0.
       -1    1    1    2    0  503  0.55493777112E+02 -0.40851254848E+02 -0.12918379769E+03  0.14641324362E+03  0.00000000000E+00 0.  1.
<scales pt_clust_1="13000.00000" pt_clust_2="13000.00000" pt_clust_3="68.90852"></scales>
<clustering>
<clus scale="   68.909">  2  5  1 -1</clus>
<clus scale="  355.858">  1  3  2 -1</clus>
<clus scale="  355.858">  1  3  2 -1</clus>
</clustering>
</event>
<event>
 4   0  0.3464723E-02  0.3710609E+03  0.7816531E-02  0.1054288E+00
       21   -1    0    0  503  502  0.00000000000E+00  0.00000000000E+00  0.12466817980E+04  0.12466817980E+04  0.00000000000E+00 0.  1.
       21   -1    0    0  501  503  0.00000000000E+00  0.00000000000E+00 -0.14159524655E+03  0.14159524655E+03  0.00000000000E+00 0.  1.
  1000006    1    1    2  501    0 -0.12258374451E+03  0.12626658003E+02  0.22695220704E+03  0.43496380446E+03  0.35000000000E+03 0.  0.
 -1000006    1    1    2    0  502  0.12258374451E+03 -0.12626658003E+02  0.87813434444E+03  0.95331324012E+03  0.35000000000E+03 0.  0.
<scales pt_clust_1="13000.00000" pt_clust_2="13000.00000"></scales>
<clustering>
<clus scale="  371.061">  2  3  1 -1</clus>
<clus scale="  371.061">  1  3  2 -1</clus>
</clustering>
</event>
<event>
 6   2  0.3464723E-02  0.4228302E+03  0.7816531E-02  0.1036149E+00
       21   -1    0    0  505  502  0.00000000000E+00  0.00000000000E+00  0.67792030892E+03  0.67792030892E+03  0.00000000000E+00 0.  1.
       21   -1    0    0  501  503  0.00000000000E+00  0.00000000000E+00 -0.56397633747E+03  0.56397633747E+03  0.00000000000E+00 0.  1.
  1000006    1    1    2  501    0  0.10985865768E+03 -0.18359198888E+03 -0.21683617296E+03  0.46399662602E+03  0.35000000000E+03 0.  0.
 -1000006    1    1    2    0  502 -0.87587474882E+02  0.24219452670E+03  0.27750875257E+03  0.51559757784E+03  0.35000000000E+03 0.  0.
       21    1    1    2  504  503  0.28185729288E+02 -0.15660944159E+02 -0.94772996664E+02  0.10010804865E+03  0.00000000000E+00 0.  1.
       21    1    1    2  505  504 -0.50456912086E+02 -0.42941593660E+02  0.14804438851E+03  0.16219439390E+03  0.00000000000E+00 0.  1.
<scales pt_clust_1="13000.00000" pt_clust_2="13000.00000" pt_clust_3="32.24439" pt_clust_4="66.08617"></scales>
<clustering>
<clus scale="   32.244">  2  5  1 -1</clus>
<clus scale="   66.086">  1  6  2 -1</clus>
<clus scale="  422.830">  2  3  1 -1</clus>
<clus scale="  422.830">  1  3  2 -1</clus>
</clustering>
</event>
<event>
 4   0  0.3464723E-02  0.3699824E+03  0.7816531E-02  0.1054700E+00
       21   -1    0    0  503  502  0.00000000000E+00  0.00000000000E+00  0.60921465588E+03  0.60921465588E+03  0.00000000000E+00 0. -1.
       21   -1    0    0  501  503  0.00000000000E+00  0.00000000000E+00 -0.23142499518E+03  0.23142499518E+03  0.00000000000E+00 0. -1.
  1000006    1    1    2  501    0 -0.73652542908E+02 -0.94669392654E+02  0.11721311417E+03  0.38810553348E+03  0.35000000000E+03 0.  0.
 -1000006    1    1    2    0  502  0.73652542908E+02  0.94669392654E+02  0.26057654653E+03  0.45253411759E+03  0.35000000000E+03 0.  0.
<scales pt_clust_1="13000.00000" pt_clust_2="13000.00000"></scales>
<clustering>
<clus scale="  369.982">  2  3  1 -1</clus>
<clus scale="  369.982">  1  3  2 -1</clus>
</clustering>
</event>
<event>
 6   2  0.3464723E-02  0.3802414E+03  0.7816531E-02  0.1050845E+00
       21   -1    0    0  501  502  0.00000000000E+00  0.00000000000E+00  0.36540473533E+03  0.36540473533E+03  0.00000000000E+00 0.  1.
       21   -1    0    0  505  503  0.00000000000E+00  0.00000000000E+00 -0.73662406656E+03  0.73662406656E+03  0.00000000000E+00 0.  1.
  1000006    1    1    2  501    0  0.47653167334E+02  0.11071616163E+03  0.60766484762E+02  0.37512858925E+03  0.35000000000E+03 0.  0.
 -1000006    1    1    2    0  503  0.66286990351E+01 -0.21665865722E+03 -0.18803820524E+03  0.45259615556E+03  0.35000000000E+03 0.  0.
       21    1    1    2  504  502 -0.36474009682E+02  0.48567250883E+02 -0.85734209836E+02  0.10506895820E+03  0.00000000000E+00 0.  1.
       21    1    1    2  505  504 -0.17807856687E+02  0.57375244705E+02 -0.15821340091E+03  0.16923509888E+03  0.00000000000E+00 0.  1.
<scales pt_clust_1="13000.00000" pt_clust_2="13000.00000" pt_clust_3="125.42838" pt_clust_4="39.30518"></scales>
<clustering>
<clus scale="   39.305">  5  6 -1 -1</clus>
<clus scale="  125.428">  2  5  1 -1</clus>
<clus scale="  380.241">  1  3  2 -1</clus>
<clus scale="  380.241">  1  3  2 -1</clus>
</clustering>
</event>
<event>
 5   1  0.3464723E-02  0.3519390E+03  0.7816531E-02  0.1061822E+00
       21   -1    0    0  501  502  0.00000000000E+00  0.00000000000E+00  0.72759841384E+03  0.72759841384E+03  0.00000000000E+00 0. -1.
       21   -1    0    0  504  503  0.00000000000E+00  0.00000000000E+00 -0.26308931870E+03  0.26308931870E+03  0.00000000000E+00 0. -1.
  1000006    1    1    2  501    0  0.10704437912E+02  0.32051651214E+02  0.19599212677E+03  0.40256031485E+03  0.35000000000E+03 0.  0.
 -1000006    1    1    2    0  503 -0.48362649121E+02 -0.49668655108E+01  0.40770178958E+02  0.35570468520E+03  0.35000000000E+03 0.  0.
       21    1    1    2  504  502  0.37658211209E+02 -0.27084785704E+02  0.22774678941E+03  0.23242273249E+03  0.00000000000E+00 0. -1.
<scales pt_clust_1="13000.00000" pt_clust_2="13000.00000" pt_clust_3="46.38671"></scales>
<clustering>
<clus scale="   46.387">  1  5  2 -1</clus>
<clus scale="  351.939">  2  4  1 -1</clus>
<clus scale="  351.939">  1  3  2 -1</clus>
</clustering>
</event>
<event>
 5   1  0.3464723E-02  0.4451739E+03  0.7816531E-02  0.1029171E+00
       21   -1    0    0  504  502  0.00000000000E+00  0.00000000000E+00  0.11115361539E+04  0.11115361539E+04  0.00000000000E+00 0. -1.
       21   -1    0    0  501  503  0.00000000000E+00  0.00000000000E+00 -0.24741942105E+03  0.24741942105E+03  0.00000000000E+00 0. -1.
  1000006    1    1    2  501    0  0.15709630527E+03  0.17162313925E+03  0.31116813166E+03  0.52293341566E+03  0.35000000000E+03 0.  0.
 -1000006    1    1    2    0  502 -0.24730505787E+03 -0.20207970511E+03  0.28797008542E+03  0.55445718406E+03  0.35000000000E+03 0.  0.
       21    1    1    2  504  503  0.90208752595E+02  0.30456565860E+02  0.26497851574E+03  0.28156497519E+03  0.00000000000E+00 0. -1.
<scales pt_clust_1="13000.00000" pt_clust_2="13000.00000" pt_clust_3="95.21146"></scales>
<clustering>
<clus scale="   95.211">  1  5  2 -1</clus>
<clus scale="  445.174">  1  4  2 -1</clus>
<clus scale="  445.174">  1  3  2 -1</clus>
</clustering>
</event>
<event>
 5   1  0.3464723E-02  0.4232008E+03  0.7816531E-02  0.1036030E+00
        2   -1    0    0  501    0  0.00000000000E+00  0.00000000000E+00  0.76171162162E+03  0.76171162162E+03  0.00000000000E+00 0. -1.
       21   -1    0    0  502  503  0.00000000000E+00  0.00000000000E+00 -0.26984287150E+04  0.26984287150E+04  0.00000000000E+00 0.  1.
  1000006    1    1    2  501    0  0.21715269729E+03 -0.93308830461E+00 -0.48259673292E+03  0.63447282938E+03  0.35000000000E+03 0.  0.
 -1000006    1    1    2    0  503 -0.16072884146E+02 -0.30644671672E+03 -0.20628449148E+04  0.21147096894E+04  0.35000000000E+03 0.  0.
        2    1    1    2  502    0 -0.20107981315E+03  0.30737980503E+03  0.60872455432E+03  0.71095781789E+03  0.00000000000E+00 0. -1.
<scales pt_clust_1="13000.00000" pt_clust_2="13000.00000" pt_clust_3="367.30837"></scales>
<clustering>
<clus scale="  367.308">  1  5  2 -1</clus>
<clus scale="  423.201">  1  3  2 -1</clus>
<clus scale="  423.201">  2  3  1 -1</clus>
</clustering>
</event>
<event>
 6   2  0.3464723E-02  0.5334622E+03  0.7816531E-02  0.1005396E+00
       -1   -1    0    0    0  501  0.00000000000E+00  0.00000000000E+00  0.12908594384E+04  0.12908594384E+04  0.00000000000E+00 0.  1.
       21   -1    0    0  504  503  0.00000000000E+00  0.00000000000E+00 -0.12609632802E+04  0.12609632802E+04  0.00000000000E+00 0. -1.
  1000006    1    1    2  502    0  0.44356765042E+03  0.79829069124E+02  0.13747086242E+02  0.57080112400E+03  0.35000000000E+03 0.  0.
 -1000006    1    1    2    0  503 -0.39036917415E+03 -0.28764548664E+02 -0.90453870434E+03  0.10458994976E+04  0.35000000000E+03 0.  0.
       21    1    1    2  504  501 -0.28714887851E+02 -0.23185062951E+02  0.43067112526E+02  0.56717440965E+02  0.00000000000E+00 0.  1.
       -1    1    1    2    0  502 -0.24483588414E+02 -0.27879457509E+02  0.87762066378E+03  0.87840465603E+03  0.00000000000E+00 0.  1.
<scales pt_clust_1="13000.00000" pt_clust_2="13000.00000" pt_clust_3="36.90653" pt_clust_4="62.99257"></scales>
<clustering>
<clus scale="   36.907">  1  5  2 -1</clus>
<clus scale="   62.993">  1  6  2 -1</clus>
<clus scale="  533.462">  2  4  1 -1</clus>
<clus scale="  533.462">  2  3  1 -1</clus>
</clustering>
</event>
<event>
 5   1  0.3464723E-02  0.6204376E+03  0.7816531E-02  0.9863889E-01
       21   -1    0    0  504  502  0.00000000000E+00  0.00000000000E+00  0.37621270658E+03  0.37621270658E+03  0.00000000000E+00 0. -1.
       21   -1    0    0  501  503  0.00000000000E+00  0.00000000000E+00 -0.18840665366E+04  0.18840665366E+04  0.00000000000E+00 0.  1.
  1000006    1    1    2  501    0 -0.52633206792E+03 -0.56435173678E+02 -0.14332019412E+04  0.15674112986E+04  0.35000000000E+03 0.  0.
 -1000006    1    1    2    0  502  0.50810302909E+03  0.27768534503E+02 -0.75472716516E+01  0.61765422445E+03  0.35000000000E+03 0.  0.
       21    1    1    2  504  503  0.18229038831E+02  0.28666639174E+02 -0.67104617075E+02  0.75213720099E+02  0.00000000000E+00 0.  1.
<scales pt_clust_1="13000.00000" pt_clust_2="13000.00000" pt_clust_3="33.97167"></scales>
<clustering>
<clus scale="   33.972">  2  5  1 -1</clus>
<clus scale="  620.438">  1  4  2 -1</clus>
<clus scale="  620.438">  1  3  2 -1</clus>
</clustering>
</event>
<event>
 6   2  0.3464723E-02  0.3954792E+03  0.7816531E-02  0.1045356E+00
        1   -1    0    0  503    0  0.00000000000E+00  0.00000000000E+00  0.17373775430E+04  0.17373775430E+04  0.00000000000E+00 0. -1.
       21   -1    0    0  504  503  0.00000000000E+00  0.00000000000E+00 -0.18598778374E+04  0.18598778374E+04  0.00000000000E+00 0. -1.
  1000006    1    1    2  501    0  0.21849766123E+03  0.11572728076E+03 -0.15534796529E+02  0.42880690453E+03  0.35000000000E+03 0.  0.
 -1000006    1    1    2    0  502 -0.14237700125E+03 -0.95008599519E+02  0.72769606373E+03  0.82543285955E+03  0.35000000000E+03 0.  0.
       21    1    1    2  504  501 -0.10776879536E+03  0.18963936937E+02 -0.15860973776E+04  0.15898674899E+04  0.00000000000E+00 0. -1.
        1    1    1    2  502    0  0.31648135376E+02 -0.39682618174E+02  0.75143581608E+03  0.75314812643E+03  0.00000000000E+00 0. -1.
<scales pt_clust_1="13000.00000" pt_clust_2="13000.00000" pt_clust_3="109.35182" pt_clust_4="50.75741"></scales>
<clustering>
<clus scale="   50.757">  1  6  2 -1</clus>
<clus scale="  109.352">  2  5  1 -1</clus>
<clus scale="  395.479">  2  3  1 -1</clus>
<clus scale="  395.479">  2  3  1 -1</clus>
</clustering>
</event>
<event>
 6   2  0.3464723E-02  0.3568776E+03  0.7816531E-02  0.1059827E+00
       21   -1    0    0  505  502  0.00000000000E+00  0.00000000000E+00  0.57038404456E+03  0.57038404456E+03  0.00000000000E+00 0. -1.
       21   -1    0    0  501  503  0.00000000000E+00  0.00000000000E+00 -0.41251200746E+03  0.41251200746E+03  0.00000000000E+00 0. -1.
  1000006    1    1    2  501    0  0.66257160260E+02 -0.89714273737E+02  0.73062938072E+02  0.37453551917E+03  0.35000000000E+03 0.  0.
 -1000006    1    1    2    0  504 -0.39719510249E+01  0.53165444453E+02  0.19705099071E+03  0.40518074216E+03  0.35000000000E+03 0.  0.
       21    1    1    2  504  502 -0.53027222779E+01 -0.32291486020E+02  0.23763713568E+02  0.40442218231E+02  0.00000000000E+00 0. -1.
       21    1    1    2  505  503 -0.56982486957E+02  0.68840315304E+02 -0.13600560525E+03  0.16273757246E+03  0.00000000000E+00 0.  1.
<scales pt_clust_1="13000.00000" pt_clust_2="13000.00000" pt_clust_3="32.72398" pt_clust_4="88.83278"></scales>
<clustering>
<clus scale="   32.724">  1  5  2 -1</clus>
<clus scale="   88.833">  2  6  1 -1</clus>
<clus scale="  356.878">  2  3  1 -1</clus>
<clus scale="  356.878">  1  3  2 -1</clus>
</clustering>
</event>
<event>
 5   1  0.3464723E-02  0.4046998E+03  0.7816531E-02  0.1042164E+00
       21   -1    0    0  501  502  0.00000000000E+00  0.00000000000E+00  0.10596824424E+03  0.10596824424E+03  0.00000000000E+00 0.  1.
       21   -1    0    0  504  503  0.00000000000E+00  0.00000000000E+00 -0.23089009915E+04  0.23089009915E+04  0.00000000000E+00 0.  1.
  1000006    1    1    2  501    0  0.65631264769E+02  0.19370345585E+03 -0.44157093251E+03  0.59942754371E+03  0.35000000000E+03 0.  0.
 -1000006    1    1    2    0  503 -0.34509664860E+02 -0.19794259130E+03 -0.15462627952E+04  0.15980615815E+04  0.35000000000E+03 0.  0.
       21    1    1    2  504  502 -0.31121599909E+02  0.42391354514E+01 -0.21509901948E+03  0.21738011048E+03  0.00000000000E+00 0.  1.
<scales pt_clust_1="13000.00000" pt_clust_2="13000.00000" pt_clust_3="31.40898"></scales>
<clustering>
<clus scale="   31.409">  2  5  1 -1</clus>
<clus scale="  404.700">  2  4  1 -1</clus>
<clus scale="  404.700">  1  3  2 -1</clus>
</clustering>
</event>
<event>
 6   2  0.3464723E-02  0.4078469E+03  0.7816531E-02  0.1041096E+00
       21   -1    0    0  501  502  0.00000000000E+00  0.00000000000E+00  0.34475936206E+03  0.34475936206E+03  0.00000000000E+00 0. -1.
       21   -1    0    0  504  503  0.00000000000E+00  0.00000000000E+00 -0.96127504998E+03  0.96127504998E+03  0.00000000000E+00 0. -1.
  1000006    1    1    2  501    0  0.20945096709E+03 -0.48250351662E+02  0.13975850880E+02  0.41096609161E+03  0.35000000000E+03 0.  0.
 -1000006    1    1    2    0  505 -0.18448723314E+03  0.63491000609E+02 -0.23032454220E+03  0.46218615415E+03  0.35000000000E+03 0.  0.
       21    1    1    2  504  502 -0.16862734696E+01 -0.35024214500E+02 -0.37218380740E+01  0.35261752625E+02  0.00000000000E+00 0. -1.
       21    1    1    2  505  503 -0.23277460483E+02  0.19783565553E+02 -0.39644515853E+03  0.39762041365E+03  0.00000000000E+00 0. -1.
<scales pt_clust_1="13000.00000" pt_clust_2="13000.00000" pt_clust_3="34.43097" pt_clust_4="30.54881"></scales>
<clustering>
<clus scale="   30.549">  2  6  1 -1</clus>
<clus scale="   34.431">  1  5  2 -1</clus>
<clus scale="  407.847">  1  3  2 -1</clus>
<clus scale="  407.847">  1  3  2 -1</clus>
</clustering>
</event>
<event>
 4   0  0.3464723E-02  0.3771954E+03  0.7816531E-02  0.1051975E+00
       21   -1    0    0  503  502  0.00000000000E+00  0.00000000000E+00  0.97935281061E+03  0.97935281061E+03  0.00000000000E+00 0.  1.
       21   -1    0    0  501  503  0.00000000000E+00  0.00000000000E+00 -0.15659747551E+03  0.15659747551E+03  0.00000000000E+00 0.  1.
  1000006    1    1    2  501    0  0.11675470596E+03 -0.78388418467E+02  0.25865991898E+03  0.45736348696E+03  0.35000000000E+03 0.  0.
 -1000006    1    1    2    0  502 -0.11675470596E+03  0.78388418467E+02  0.56409541611E+03  0.67858679916E+03  0.35000000000E+03 0.  0.
<scales pt_clust_1="13000.00000" pt_clust_2="13000.00000"></scales>
<clustering>
<clus scale="  377.195">  2  3  1 -1</clus>
<clus scale="  377.195">  1  3  2 -1</clus>
</clustering>
</event>
<event>
 5   1  0.3464723E-02  0.3668836E+03  0.7816531E-02  0.1055891E+00
       21   -1    0    0  501  502  0.00000000000E+00  0.00000000000E+00  0.62570381692E+03  0.62570381692E+03  0.00000000000E+00 0.  1.
       21   -1    0    0  504  503  0.00000000000E+00  0.00000000000E+00 -0.37895939871E+03  0.37895939871E+03  0.00000000000E+00 0.  1.
  1000006    1    1    2  501    0 -0.90182849830E+02 -0.33802994303E+02  0.18790252863E+03  0.40875781227E+03  0.35000000000E+03 0.  0.
 -1000006    1    1    2    0  503  0.85203987084E+02  0.82336081821E+02 -0.13698992163E+03  0.39408779277E+03  0.35000000000E+03 0.  0.
       21    1    1    2  504  502  0.49788627458E+01 -0.48533087518E+02  0.19583181121E+03  0.20181761058E+03  0.00000000000E+00 0.  1.
<scales pt_clust_1="13000.00000" pt_clust_2="13000.00000" pt_clust_3="48.78780"></scales>
<clustering>
<clus scale="   48.788">  1  5  2 -1</clus>
<clus scale="  366.884">  2  4  1 -1</clus>
<clus scale="  366.884">  1  3  2 -1</clus>
</clustering>
</event>
<event>
 6   2  0.3464723E-02  0.3830296E+03  0.7816531E-02  0.1049820E+00
        2   -1    0    0  504    0  0.00000000000E+00  0.00000000000E+00  0.82268202637E+03  0.82268202637E+03  0.00000000000E+00 0. -1.
       21   -1    0    0  501  503  0.00000000000E+00  0.00000000000E+00 -0.91354165122E+03  0.91354165122E+03  0.00000000000E+00 0.  1.
  1000006    1    1    2  501    0 -0.50127810413E+02 -0.17775336249E+03 -0.51712581814E+03  0.65117445208E+03  0.35000000000E+03 0.  0.
 -1000006    1    1    2    0  502  0.17960893896E+03  0.20766050000E+02 -0.18447521527E+03  0.43499621244E+03  0.35000000000E+03 0.  0.
       21    1    1    2  504  503 -0.92894323275E+01  0.40878047375E+02  0.23661103619E+03  0.24029584007E+03  0.00000000000E+00 0.  1.
        2    1    1    2  502    0 -0.12019169622E+03  0.11610926512E+03  0.37413037237E+03  0.40975717299E+03  0.00000000000E+00 0. -1.
<scales pt_clust_1="13000.00000" pt_clust_2="13000.00000" pt_clust_3="41.92026" pt_clust_4="191.27144"></scales>
<clustering>
<clus scale="   41.920">  1  5  2 -1</clus>
<clus scale="  191.271">  1  6  2 -1</clus>
<clus scale="  383.030">  1  4  2 -1</clus>
<clus scale="  383.030">  2  3  1 -1</clus>
</clustering>
</event>
<event>
 6   2  0.3464723E-02  0.4325303E+03  0.7816531E-02  0.1033064E+00
       21   -1    0    0  501  503  0.00000000000E+00  0.00000000000E+00  0.11351810009E+04  0.11351810009E+04  0.00000000000E+00 0.  1.
        2   -1    0    0  503    0  0.00000000000E+00  0.00000000000E+00 -0.45402341921E+03  0.45402341921E+03  0.00000000000E+00 0.  1.
  1000006    1    1    2  501    0 -0.14078083351E+03 -0.88645632094E+02  0.33222473623E+03  0.51044154077E+03  0.35000000000E+03 0.  0.
 -1000006    1    1    2    0  504  0.17546874627E+03  0.32280152501E+03  0.55236736902E+03  0.75006654093E+03  0.35000000000E+03 0.  0.
       21    1    1    2  504  502 -0.39818626291E+02 -0.70060479916E+02 -0.11996995720E+03  0.14452260888E+03  0.00000000000E+00 0.  1.
        2    1    1    2  502    0  0.51307135303E+01 -0.16409541300E+03 -0.83464566408E+02  0.18417372949E+03  0.00000000000E+00 0.  1.
<scales pt_clust_1="13000.00000" pt_clust_2="13000.00000" pt_clust_3="72.21149" pt_clust_4="258.17761"></scales>
<clustering>
<clus scale="   72.211">  5  6 -1 -1</clus>
<clus scale="  258.178">  2  5  1 -1</clus>
<clus scale="  432.530">  2  4  1 -1</clus>
<clus scale="  432.530">  1  3  2 -1</clus>
</clustering>
</event>
<event>
 4   0  0.3464723E-02  0.4343422E+03  0.7816531E-02  0.1032497E+00
        2   -1    0    0  502    0  0.00000000000E+00  0.00000000000E+00  0.91716062296E+03  0.91716062296E+03  0.00000000000E+00 0.  1.
       -2   -1    0    0    0  501  0.00000000000E+00  0.00000000000E+00 -0.22171672538E+03  0.22171672538E+03  0.00000000000E+00 0. -1.
  1000006    1    1    2  502    0 -0.21956844395E+03  0.13395074627E+03  0.19463589605E+03  0.47595822929E+03  0.35000000000E+03 0.  0.
 -1000006    1    1    2    0  501  0.21956844395E+03 -0.13395074627E+03  0.50080800152E+03  0.66291911904E+03  0.35000000000E+03 0.  0.
<scales pt_clust_1="13000.00000" pt_clust_2="13000.00000"></scales>
<clustering>
<clus scale="  667.757">  3  4 -1 -1</clus>
<clus scale="  434.342">  1  3  2 -1</clus>
</clustering>
</event>
<event>
 5   1  0.3464723E-02  0.4512561E+03  0.7816531E-02  0.1027348E+00
       21   -1    0    0  503  502  0.00000000000E+00  0.00000000000E+00  0.10099374108E+04  0.10099374108E+04  0.00000000000E+00 0.  1.
       21   -1    0    0  504  503  0.00000000000E+00  0.00000000000E+00 -0.26306871201E+03  0.26306871201E+03  0.00000000000E+00 0.  1.
  1000006    1    1    2  501    0  0.81871770220E+02 -0.30241113009E+03  0.21751344405E+03  0.51765584774E+03  0.35000000000E+03 0.  0.
 -1000006    1    1    2    0  502 -0.69384057469E+02  0.26104466414E+03  0.55147131532E+03  0.70680908011E+03  0.35000000000E+03 0.  0.
       21    1    1    2  504  501 -0.12487712750E+02  0.41366465958E+02 -0.22116060558E+02  0.48541194981E+02  0.00000000000E+00 0.  1.
<scales pt_clust_1="13000.00000" pt_clust_2="13000.00000" pt_clust_3="43.21027"></scales>
<clustering>
<clus scale="   43.210">  2  5  1 -1</clus>
<clus scale="  451.256">  2  3  1 -1</clus>
<clus scale="  451.256">  1  3  2 -1</clus>
</clustering>
</event>
<event>
 4   0  0.3464723E-02  0.3595341E+03  0.7816531E-02  0.1058768E+00
       21   -1    0    0  503  502  0.00000000000E+00  0.00000000000E+00  0.42848148600E+03  0.42848148600E+03  0.00000000000E+00 0.  1.
       21   -1    0    0  501  503  0.00000000000E+00  0.00000000000E+00 -0.31609106175E+03  0.31609106175E+03  0.00000000000E+00 0.  1.
  1000006    1    1    2  501    0  0.59721173463E+01  0.82031030832E+02 -0.23292990318E+02  0.36028782883E+03  0.35000000000E+03 0.  0.
 -1000006    1    1    2    0  502 -0.59721173463E+01 -0.82031030832E+02  0.13568341456E+03  0.38428471892E+03  0.35000000000E+03 0.  0.
<scales pt_clust_1="13000.00000" pt_clust_2="13000.00000"></scales>
<clustering>
<clus scale="  359.534">  2  3  1 -1</clus>
<clus scale="  359.534">  1  3  2 -1</clus>
</clustering>
</event>
<event>
 5   1  0.3464723E-02  0.4624475E+03  0.7816531E-02  0.1024074E+00
       21   -1    0    0  503  502  0.00000000000E+00  0.00000000000E+00  0.48239670399E+03  0.48239670399E+03  0.00000000000E+00 0.  1.
       21   -1    0    0  501  503  0.00000000000E+00  0.00000000000E+00 -0.84938633308E+03  0.84938633308E+03  0.00000000000E+00 0. -1.
  1000006    1    1    2  501    0 -0.20822193905E+03 -0.20564444114E+03 -0.30750314776E+03  0.55018560319E+03  0.35000000000E+03 0.  0.
 -1000006    1    1    2    0  504  0.36724885468E+03  0.26549140668E+02 -0.14331693414E+03  0.52784118989E+03  0.35000000000E+03 0.  0.
       21    1    1    2  504  502 -0.15902691562E+03  0.17909530047E+03  0.83830452816E+02  0.25375624399E+03  0.00000000000E+00 0.  1.
<scales pt_clust_1="13000.00000" pt_clust_2="13000.00000" pt_clust_3="239.50926"></scales>
<clustering>
<clus scale="  239.509">  1  5  2 -1</clus>
<clus scale="  462.448">  1  4  2 -1</clus>
<clus scale="  462.448">  1  3  2 -1</clus>
</clustering>
</event>
<event>
 6   2  0.3464723E-02  0.3578928E+03  0.7816531E-02  0.1059421E+00
       21   -1    0    0  505  502  0.00000000000E+00  0.00000000000E+00  0.28076808866E+03  0.28076808866E+03  0.00000000000E+00 0. -1.
       21   -1    0    0  504  503  0.00000000000E+00  0.00000000000E+00 -0.78053991528E+03  0.78053991528E+03  0.00000000000E+00 0. -1.
  1000006    1    1    2  501    0  0.13635827573E+02  0.10372367666E+03 -0.19026129997E+03  0.41187850048E+03  0.35000000000E+03 0.  0.
 -1000006    1    1    2    0  503 -0.41863800386E+02 -0.36226325293E+02 -0.26491870624E+03  0.44243287100E+03  0.35000000000E+03 0.  0.
       21    1    1    2  504  502  0.19784538589E+02 -0.31989654281E+02 -0.11863058798E+03  0.12445072259E+03  0.00000000000E+00 0. -1.
       21    1    1    2  505  501  0.84434342238E+01 -0.35507697086E+02  0.74038767562E+02  0.82545909868E+02  0.00000000000E+00 0. -1.
<scales pt_clust_1="13000.00000" pt_clust_2="13000.00000" pt_clust_3="38.11159" pt_clust_4="36.49778"></scales>
<clustering>
<clus scale="   36.498">  1  6  2 -1</clus>
<clus scale="   38.112">  2  5  1 -1</clus>
<clus scale="  357.893">  1  3  2 -1</clus>
<clus scale="  357.893">  1  3  2 -1</clus>
</clustering>
</event>
<event>
 5   1  0.3464723E-02  0.3874578E+03  0.7816531E-02  0.1048211E+00
       21   -1    0    0  504  502  0.00000000000E+00  0.00000000000E+00  0.78656488054E+03  0.78656488054E+03  0.00000000000E+00 0. -1.
       21   -1    0    0  501  503  0.00000000000E+00  0.00000000000E+00 -0.30454903189E+03  0.30454903189E+03  0.00000000000E+00 0. -1.
  1000006    1    1    2  501    0  0.16382572625E+03 -0.56571499362E+02 -0.69579500188E+02  0.39671212481E+03  0.35000000000E+03 0.  0.
 -1000006    1    1    2    0  502 -0.13156553645E+03  0.58560204841E+02  0.45110617151E+03  0.58884256466E+03  0.35000000000E+03 0.  0.
       21    1    1    2  504  503 -0.32260189799E+02 -0.19887054789E+01  0.10048917732E+03  0.10555922297E+03  0.00000000000E+00 0. -1.
<scales pt_clust_1="13000.00000" pt_clust_2="13000.00000" pt_clust_3="32.32143"></scales>
<clustering>
<clus scale="   32.321">  1  5  2 -1</clus>
<clus scale="  387.458">  2  3  1 -1</clus>
<clus scale="  387.458">  1  3  2 -1</clus>
</clustering>
</event>
<event>
 4   0  0.3464723E-02  0.3967116E+03  0.7816531E-02  0.1044924E+00
       21   -1    0    0  503  502  0.00000000000E+00  0.00000000000E+00  0.13885169968E+03  0.13885169968E+03  0.00000000000E+00 0. -1.
       21   -1    0    0  501  503  0.00000000000E+00  0.00000000000E+00 -0.14595626183E+04  0.14595626183E+04  0.00000000000E+00 0. -1.
  1000006    1    1    2  501    0 -0.10300557174E+02  0.18647777131E+03 -0.10381350631E+04  0.11113525408E+04  0.35000000000E+03 0.  0.
 -1000006    1    1    2    0  502  0.10300557174E+02 -0.18647777131E+03 -0.28257585550E+03  0.48706177717E+03  0.35000000000E+03 0.  0.
<scales pt_clust_1="13000.00000" pt_clust_2="13000.00000"></scales>
<clustering>
<clus scale="  396.712">  2  3  1 -1</clus>
<clus scale="  396.712">  1  3  2 -1</clus>
</clustering>
</event>
<event>
 5   1  0.3464723E-02  0.4214035E+03  0.7816531E-02  0.1036610E+00
       21   -1    0    0  504  502  0.00000000000E+00  0.00000000000E+00  0.15073878440E+04  0.15073878440E+04  0.00000000000E+00 0. -1.
       21   -1    0    0  501  503  0.00000000000E+00  0.00000000000E+00 -0.17716612587E+03  0.17716612587E+03  0.00000000000E+00 0. -1.
  1000006    1    1    2  501    0  0.26754783544E+03 -0.14928984625E+03  0.46618048571E+03  0.65855413422E+03  0.35000000000E+03 0.  0.
 -1000006    1    1    2    0  502 -0.18775668568E+03  0.69058604823E+02  0.80036116069E+03  0.89615827367E+03  0.35000000000E+03 0.  0.
       21    1    1    2  504  503 -0.79791149763E+02  0.80231241424E+02  0.63680071703E+02  0.12984156196E+03  0.00000000000E+00 0. -1.
<scales pt_clust_1="13000.00000" pt_clust_2="13000.00000" pt_clust_3="113.15335"></scales>
<clustering>
<clus scale="  113.153">  2  5  1 -1</clus>
<clus scale="  421.404">  1  4  2 -1</clus>
<clus scale="  421.404">  1  3  2 -1</clus>
</clustering>
</event>
<event>
 5   1  0.3464723E-02  0.3573625E+03  0.7816531E-02  0.1059633E+00
       21   -1    0    0  501  502  0.00000000000E+00  0.00000000000E+00  0.35524722353E+03  0.35524722353E+03  0.00000000000E+00 0.  1.
       21   -1    0    0  504  503  0.00000000000E+00  0.00000000000E+00 -0.62283621948E+03  0.62283621948E+03  0.00000000000E+00 0.  1.
  1000006    1    1    2  501    0  0.15797648078E+03 -0.33440453784E+02  0.40954507383E+02  0.38762366298E+03  0.35000000000E+03 0.  0.
 -1000006    1    1    2    0  503 -0.38273118640E+02 -0.23153579737E+02 -0.29006337227E+03  0.45676873776E+03  0.35000000000E+03 0.  0.
       21    1    1    2  504  502 -0.11970336214E+03  0.56594033521E+02 -0.18480131065E+02  0.13369104226E+03  0.00000000000E+00 0.  1.
<scales pt_clust_1="13000.00000" pt_clust_2="13000.00000" pt_clust_3="132.40763"></scales>
<clustering>
<clus scale="  132.408">  1  5  2 -1</clus>
<clus scale="  357.362">  2  4  1 -1</clus>
<clus scale="  357.362">  1  3  2 -1</clus>
</clustering>
</event>
<event>
 4   0  0.3464723E-02  0.3681694E+03  0.7816531E-02  0.1055395E+00
       21   -1    0    0  501  502  0.00000000000E+00  0.00000000000E+00  0.35173346620E+03  0.35173346620E+03  0.00000000000E+00 0.  1.
       21   -1    0    0  502  503  0.00000000000E+00  0.00000000000E+00 -0.39296139255E+03  0.39296139255E+03  0.00000000000E+00 0.  1.
  1000006    1    1    2  501    0 -0.87812458059E+02  0.73059647272E+02  0.31127105458E+02  0.36948293133E+03  0.35000000000E+03 0.  0.
 -1000006    1    1    2    0  503  0.87812458059E+02 -0.73059647272E+02 -0.72355031801E+02  0.37521192742E+03  0.35000000000E+03 0.  0.
<scales pt_clust_1="13000.00000" pt_clust_2="13000.00000"></scales>
<clustering>
<clus scale="  368.169">  1  3  2 -1</clus>
<clus scale="  368.169">  1  3  2 -1</clus>
</clustering>
</event>
<event>
 6   2  0.3464723E-02  0.5152859E+03  0.7816531E-02  0.1009864E+00
       -1   -1    0    0    0  501  0.00000000000E+00  0.00000000000E+00  0.35832464210E+03  0.35832464210E+03  0.00000000000E+00 0. -1.
        2   -1    0    0  501    0  0.00000000000E+00  0.00000000000E+00 -0.25198535945E+04  0.25198535945E+04  0.00000000000E+00 0. -1.
  1000006    1    1    2  502    0  0.11015462872E+03  0.35180452045E+03 -0.44805130373E+03  0.67760640021E+03  0.35000000000E+03 0.  0.
 -1000006    1    1    2    0  503 -0.23297534032E+02 -0.37450488825E+03 -0.10740537044E+04  0.11903310659E+04  0.35000000000E+03 0.  0.
        2    1    1    2  503    0 -0.24711377191E+02 -0.21082709257E+02 -0.81670358537E+03  0.81734930058E+03  0.00000000000E+00 0. -1.
       -1    1    1    2    0  502 -0.62145717493E+02  0.43783077062E+02  0.17727964109E+03  0.19289146996E+03  0.00000000000E+00 0. -1.
<scales pt_clust_1="13000.00000" pt_clust_2="13000.00000" pt_clust_3="32.48281" pt_clust_4="76.05713"></scales>
<clustering>
<clus scale="   32.483">  2  5  1 -1</clus>
<clus scale="   76.057">  1  6  2 -1</clus>
<clus scale="  515.286">  2  4  1 -1</clus>
<clus scale="  515.286">  2  3  1 -1</clus>
</clustering>
</event>
<event>
 6   2  0.3464723E-02  0.3949769E+03  0.7816531E-02  0.1045533E+00
        2   -1    0    0  501    0  0.00000000000E+00  0.00000000000E+00  0.20046983870E+04  0.20046983870E+04  0.00000000000E+00 0. -1.
       -2   -1    0    0    0  501  0.00000000000E+00  0.00000000000E+00 -0.15092155030E+03  0.15092155030E+03  0.00000000000E+00 0. -1.
  1000006    1    1    2  502    0 -0.38789629749E+02 -0.26984239482E+03  0.63319993098E+03  0.77315050670E+03  0.35000000000E+03 0.  0.
 -1000006    1    1    2    0  503 -0.11975167205E+03  0.88851379880E+02  0.68861867206E+03  0.78672149212E+03  0.35000000000E+03 0.  0.
        2    1    1    2  503    0  0.12277068216E+03  0.11981904090E+03  0.47436706913E+03  0.50443370152E+03  0.00000000000E+00 0. -1.
       -2    1    1    2    0  502  0.35770619633E+02  0.61171974038E+02  0.57591164540E+02  0.91314236950E+02  0.00000000000E+00 0. -1.
<scales pt_clust_1="13000.00000" pt_clust_2="13000.00000" pt_clust_3="179.22382" pt_clust_4="70.86288"></scales>
<clustering>
<clus scale="   70.863">  2  6  1 -1</clus>
<clus scale="  179.224">  1  5  2 -1</clus>
<clus scale="  394.977">  2  3  1 -1</clus>
<clus scale="  394.977">  1  3  2 -1</clus>
</clustering>
</event>
<event>
 5   1  0.3464723E-02  0.4163875E+03  0.7816531E-02  0.1038249E+00
       21   -1    0    0  504  502  0.00000000000E+00  0.00000000000E+00  0.57723605139E+03  0.57723605139E+03  0.00000000000E+00 0.  1.
       21   -1    0    0  501  503  0.00000000000E+00  0.00000000000E+00 -0.83128442460E+03  0.83128442460E+03  0.00000000000E+00 0.  1.
  1000006    1    1    2  501    0  0.26426477191E+01 -0.22010371507E+03 -0.62163074371E+03  0.74657712964E+03  0.35000000000E+03 0.  0.
 -1000006    1    1    2    0  502 -0.76323469843E+02  0.21446297769E+03  0.40274625250E+03  0.58010704594E+03  0.35000000000E+03 0.  0.
       21    1    1    2  504  503  0.73680822124E+02  0.56407373795E+01 -0.35163882000E+02  0.81836300407E+02  0.00000000000E+00 0. -1.
<scales pt_clust_1="13000.00000" pt_clust_2="13000.00000" pt_clust_3="73.89642"></scales>
<clustering>
<clus scale="   73.896">  2  5  1 -1</clus>
<clus scale="  416.387">  1  4  2 -1</clus>
<clus scale="  416.387">  1  3  2 -1</clus>
</clustering>
</event>
<event>
 4   0  0.3464723E-02  0.3994338E+03  0.7816531E-02  0.1043976E+00
       21   -1    0    0  501  502  0.00000000000E+00  0.00000000000E+00  0.34217859194E+03  0.34217859194E+03  0.00000000000E+00 0. -1.
       21   -1    0    0  502  503  0.00000000000E+00  0.00000000000E+00 -0.49254267195E+03  0.49254267195E+03  0.00000000000E+00 0. -1.
  1000006    1    1    2  501    0 -0.14483147031E+03  0.12677229085E+03  0.21211416689E+02  0.39999661588E+03  0.35000000000E+03 0.  0.
 -1000006    1    1    2    0  503  0.14483147031E+03 -0.12677229085E+03 -0.17157549669E+03  0.43472464801E+03  0.35000000000E+03 0.  0.
<scales pt_clust_1="13000.00000" pt_clust_2="13000.00000"></scales>
<clustering>
<clus scale="  399.434">  1  3  2 -1</clus>
<clus scale="  399.434">  1  3  2 -1</clus>
</clustering>
</event>
<event>
 5   1  0.3464723E-02  0.6905829E+03  0.7816531E-02  0.9733474E-01
       21   -1    0    0  503  502  0.00000000000E+00  0.00000000000E+00  0.55610865025E+03  0.55610865025E+03  0.00000000000E+00 0. -1.
       21   -1    0    0  501  503  0.00000000000E+00  0.00000000000E+00 -0.99578029020E+03  0.99578029020E+03  0.00000000000E+00 0.  1.
  1000006    1    1    2  501    0  0.98812855710E+01 -0.60285194906E+03 -0.41472444030E+03  0.81118707687E+03  0.35000000000E+03 0.  0.
 -1000006    1    1    2    0  504 -0.63777703242E+02  0.58058853433E+03 -0.12287475496E+02  0.68102982584E+03  0.35000000000E+03 0.  0.
       21    1    1    2  504  502  0.53896417671E+02  0.22263414731E+02 -0.12659724151E+02  0.59672037746E+02  0.00000000000E+00 0.  1.
<scales pt_clust_1="13000.00000" pt_clust_2="13000.00000" pt_clust_3="58.31366"></scales>
<clustering>
<clus scale="   58.314">  1  5  2 -1</clus>
<clus scale="  690.583">  1  4  2 -1</clus>
<clus scale="  690.583">  1  3  2 -1</clus>
</clustering>
</event>
<event>
 5   1  0.3464723E-02  0.4195482E+03  0.7816531E-02  0.1037213E+00
       21   -1    0    0  503  502  0.00000000000E+00  0.00000000000E+00  0.99342500291E+03  0.99342500291E+03  0.00000000000E+00 0.  1.
       21   -1    0    0  501  503  0.00000000000E+00  0.00000000000E+00 -0.53812987643E+03  0.53812987643E+03  0.00000000000E+00 0.  1.
  1000006    1    1    2  501    0 -0.10195011895E+03  0.19051428705E+03 -0.23363792227E+03  0.47304989066E+03  0.35000000000E+03 0.  0.
 -1000006    1    1    2    0  504  0.14263059698E+03 -0.22373307244E+03  0.78923415852E+02  0.44623859142E+03  0.35000000000E+03 0.  0.
       21    1    1    2  504  502 -0.40680478030E+02  0.33218785389E+02  0.61000963289E+03  0.61226639726E+03  0.00000000000E+00 0.  1.
<scales pt_clust_1="13000.00000" pt_clust_2="13000.00000" pt_clust_3="52.52037"></scales>
<clustering>
<clus scale="   52.520">  1  5  2 -1</clus>
<clus scale="  419.548">  2  3  1 -1</clus>
<clus scale="  419.548">  1  3  2 -1</clus>
</clustering>
</event>
<event>
 5   1  0.3464723E-02  0.4563078E+03  0.7816531E-02  0.1025858E+00
       -2   -1    0    0    0  501  0.00000000000E+00  0.00000000000E+00  0.19728253581E+03  0.19728253581E+03  0.00000000000E+00 0.  1.
        2   -1    0    0  502    0  0.00000000000E+00  0.00000000000E+00 -0.22530421261E+04  0.22530421261E+04  0.00000000000E+00 0. -1.
  1000006    1    1    2  502    0 -0.16648521361E+03 -0.26574159775E+03 -0.47524914750E+03  0.66835445336E+03  0.35000000000E+03 0.  0.
 -1000006    1    1    2    0  503  0.19597218520E+03  0.21033983507E+03 -0.16364034319E+04  0.16979293671E+04  0.35000000000E+03 0.  0.
       21    1    1    2  503  501 -0.29486971593E+02  0.55401762682E+02  0.55892989128E+02  0.84040841474E+02  0.00000000000E+00 0. -1.
<scales pt_clust_1="13000.00000" pt_clust_2="13000.00000" pt_clust_3="62.76015"></scales>
<clustering>
<clus scale="   62.760">  1  5  2 -1</clus>
<clus scale="  876.803">  3  4 -1 -1</clus>
<clus scale="  456.308">  2  3  1 -1</clus>
</clustering>
</event>
<event>
 4   0  0.3464723E-02  0.6659020E+03  0.7816531E-02  0.9777389E-01
       -1   -1    0    0    0  501  0.00000000000E+00  0.00000000000E+00  0.55855651436E+03  0.55855651436E+03  0.00000000000E+00 0. -1.
        1   -1    0    0  502    0  0.00000000000E+00  0.00000000000E+00 -0.12825471970E+04  0.12825471970E+04  0.00000000000E+00 0.  1.
  1000006    1    1    2  502    0  0.40195572679E+03 -0.39919559626E+03  0.20622819640E+03  0.69710515660E+03  0.35000000000E+03 0.  0.
 -1000006    1    1    2    0  501 -0.40195572679E+03  0.39919559626E+03 -0.93021887905E+03  0.11439985548E+04  0.35000000000E+03 0.  0.
<scales pt_clust_1="13000.00000" pt_clust_2="13000.00000"></scales>
<clustering>
<clus scale=" 1580.506">  3  4 -1 -1</clus>
<clus scale="  665.902">  2  3  1 -1</clus>
</clustering>
</event>
<event>
 5   1  0.3464723E-02  0.3885787E+03  0.7816531E-02  0.1047808E+00
       21   -1    0    0  501  502  0.00000000000E+00  0.00000000000E+00  0.43180539148E+03  0.43180539148E+03  0.00000000000E+00 0. -1.
       21   -1    0    0  504  503  0.00000000000E+00  0.00000000000E+00 -0.75960555493E+03  0.75960555493E+03  0.00000000000E+00 0. -1.
  1000006    1    1    2  501    0  0.11593417133E+03  0.81373945949E+02  0.19935367322E+03  0.42697112102E+03  0.35000000000E+03 0.  0.
 -1000006    1    1    2    0  503 -0.14933845948E+03 -0.89357591587E+02 -0.58119391075E+03  0.70040924933E+03  0.35000000000E+03 0.  0.
       21    1    1    2  504  502  0.33404288152E+02  0.79836456384E+01  0.54040074072E+02  0.64030576057E+02  0.00000000000E+00 0. -1.
<scales pt_clust_1="13000.00000" pt_clust_2="13000.00000" pt_clust_3="34.34509"></scales>
<clustering>
<clus scale="   34.345">  1  5  2 -1</clus>
<clus scale="  388.579">  1  3  2 -1</clus>
<clus scale="  388.579">  1  3  2 -1</clus>
</clustering>
</event>
<event>
 6   2  0.3464723E-02  0.3627960E+03  0.7816531E-02  0.1057482E+00
        2   -1    0    0  503    0  0.00000000000E+00  0.00000000000E+00  0.85586070895E+03  0.85586070895E+03  0.00000000000E+00 0.  1.
       21   -1    0    0  504  503  0.00000000000E+00  0.00000000000E+00 -0.86892121068E+03  0.86892121068E+03  0.00000000000E+00 0.  1.
  1000006    1    1    2  501    0  0.51111719405E+02 -0.34015415161E+02  0.16769284623E+03  0.39292537078E+03  0.35000000000E+03 0.  0.
 -1000006    1    1    2    0  502 -0.98347324132E+02  0.81084690220E+02  0.26239283394E+03  0.45562805275E+03  0.35000000000E+03 0.  0.
       21    1    1    2  504  501  0.56454575426E+02 -0.80849630911E+01 -0.65658789856E+03  0.65906005360E+03  0.00000000000E+00 0.  1.
        2    1    1    2  502    0 -0.92189706987E+01 -0.38984311967E+02  0.21344171667E+03  0.21716844250E+03  0.00000000000E+00 0.  1.
<scales pt_clust_1="13000.00000" pt_clust_2="13000.00000" pt_clust_3="57.02367" pt_clust_4="40.05953"></scales>
<clustering>
<clus scale="   40.060">  1  6  2 -1</clus>
<clus scale="   57.024">  2  5  1 -1</clus>
<clus scale="  362.796">  1  4  2 -1</clus>
<clus scale="  362.796">  2  3  1 -1</clus>
</clustering>
</event>
<event>
 4   0  0.3464723E-02  0.3595298E+03  0.7816531E-02  0.1058770E+00
       21   -1    0    0  503  502  0.00000000000E+00  0.00000000000E+00  0.55247008871E+03  0.55247008871E+03  0.00000000000E+00 0.  1.
       21   -1    0    0  501  503  0.00000000000E+00  0.00000000000E+00 -0.88456595815E+03  0.88456595815E+03  0.00000000000E+00 0.  1.
  1000006    1    1    2  501    0 -0.23507981863E+02  0.78797759343E+02 -0.78225697233E+03  0.86092257657E+03  0.35000000000E+03 0.  0.
 -1000006    1    1    2    0  502  0.23507981863E+02 -0.78797759343E+02  0.45016110289E+03  0.57611347028E+03  0.35000000000E+03 0.  0.
<scales pt_clust_1="13000.00000" pt_clust_2="13000.00000"></scales>
<clustering>
<clus scale="  359.530">  2  3  1 -1</clus>
<clus scale="  359.530">  1  3  2 -1</clus>
</clustering>
</event>
<event>
 6   2  0.3464723E-02  0.5055281E+03  0.7816531E-02  0.1012346E+00
       21   -1    0    0  505  502  0.00000000000E+00  0.00000000000E+00  0.10677315336E+04  0.10677315336E+04  0.00000000000E+00 0.  1.
       21   -1    0    0  501  503  0.00000000000E+00  0.00000000000E+00 -0.48128625754E+03  0.48128625754E+03  0.00000000000E+00 0.  1.
  1000006    1    1    2  501    0 -0.26785927763E+03  0.23475691073E+03 -0.15548642334E+03  0.52300614489E+03  0.35000000000E+03 0.  0.
 -1000006    1    1    2    0  504  0.34642357674E+03 -0.19157881172E+03  0.39165566013E+03  0.65772782496E+03  0.35000000000E+03 0.  0.
       21    1    1    2  504  502 -0.45272028045E+02 -0.55395662230E+02  0.16813948131E+03  0.18272690303E+03  0.00000000000E+00 0. -1.
       21    1    1    2  505  503 -0.33292271062E+02  0.12217563217E+02  0.18213655798E+03  0.18555691826E+03  0.00000000000E+00 0.  1.
<scales pt_clust_1="13000.00000" pt_clust_2="13000.00000" pt_clust_3="74.14458" pt_clust_4="35.46328"></scales>
<clustering>
<clus scale="   35.463">  1  6  2 -1</clus>
<clus scale="   74.145">  1  5  2 -1</clus>
<clus scale="  505.528">  1  4  2 -1</clus>
<clus scale="  505.528">  1  3  2 -1</clus>
</clustering>
</event>
<event>
 5   1  0.3464723E-02  0.5277091E+03  0.7816531E-02  0.1006789E+00
       21   -1    0    0  504  502  0.00000000000E+00  0.00000000000E+00  0.12448739168E+04  0.12448739168E+04  0.00000000000E+00 0.  1.
       21   -1    0    0  501  503  0.00000000000E+00  0.00000000000E+00 -0.28737828900E+03  0.28737828900E+03  0.00000000000E+00 0.  1.
  1000006    1    1    2  501    0  0.37553335908E+03  0.65918632995E+02  0.19120537383E+03  0.55175181462E+03  0.35000000000E+03 0.  0.
 -1000006    1    1    2    0  502 -0.41636803407E+03 -0.65033362194E+02  0.61411543844E+03  0.82293951766E+03  0.35000000000E+03 0.  0.
       21    1    1    2  504  503  0.40834674988E+02 -0.88527080074E+00  0.15217481553E+03  0.15756087353E+03  0.00000000000E+00 0.  1.
<scales pt_clust_1="13000.00000" pt_clust_2="13000.00000" pt_clust_3="40.84427"></scales>
<clustering>
<clus scale="   40.844">  1  5  2 -1</clus>
<clus scale="  527.709">  1  4  2 -1</clus>
<clus scale="  527.709">  1  3  2 -1</clus>
</clustering>
</event>
<event>
 4   0  0.3464723E-02  0.4453225E+03  0.7816531E-02  0.1029126E+00
       -2   -1    0    0    0  501  0.00000000000E+00  0.00000000000E+00  0.21526998565E+03  0.21526998565E+03  0.00000000000E+00 0.  1.
        2   -1    0    0  502    0  0.00000000000E+00  0.00000000000E+00 -0.92240195929E+03  0.92240195929E+03  0.00000000000E+00 0. -1.
  1000006    1    1    2  502    0 -0.16397424566E+03  0.22118896887E+03 -0.37388440782E+03  0.58146510093E+03  0.35000000000E+03 0.  0.
 -1000006    1    1    2    0  501  0.16397424566E+03 -0.22118896887E+03 -0.33324756583E+03  0.55620684401E+03  0.35000000000E+03 0.  0.
<scales pt_clust_1="13000.00000" pt_clust_2="13000.00000"></scales>
<clustering>
<clus scale="  653.270">  3  4 -1 -1</clus>
<clus scale="  445.322">  2  3  1 -1</clus>
</clustering>
</event>
<event>
 6   2  0.3464723E-02  0.3644969E+03  0.7816531E-02  0.1056817E+00
       21   -1    0    0  505  502  0.00000000000E+00  0.00000000000E+00  0.70045143218E+03  0.70045143218E+03  0.00000000000E+00 0.  1.
       21   -1    0    0  501  503  0.00000000000E+00  0.00000000000E+00 -0.52088474467E+03  0.52088474467E+03  0.00000000000E+00 0. -1.
  1000006    1    1    2  501    0 -0.24691986432E+02 -0.72003445408E+02 -0.10005964254E+03  0.37189531109E+03  0.35000000000E+03 0.  0.
 -1000006    1    1    2    0  502  0.70362737999E+02  0.10644480808E+03 -0.54101855948E+02  0.37644179216E+03  0.35000000000E+03 0.  0.
       21    1    1    2  504  503  0.32916744547E+01 -0.48343321047E+02 -0.59362016784E+02  0.76627415767E+02  0.00000000000E+00 0.  1.
       21    1    1    2  505  504 -0.48962426021E+02  0.13901958370E+02  0.39309020279E+03  0.39637165784E+03  0.00000000000E+00 0.  1.
<scales pt_clust_1="13000.00000" pt_clust_2="13000.00000" pt_clust_3="48.45526" pt_clust_4="50.83874"></scales>
<clustering>
<clus scale="   48.455">  2  5  1 -1</clus>
<clus scale="   50.839">  1  6  2 -1</clus>
<clus scale="  364.497">  2  3  1 -1</clus>
<clus scale="  364.497">  1  3  2 -1</clus>
</clustering>
</event>
<event>
 6   2  0.3464723E-02  0.3551781E+03  0.7816531E-02  0.1060510E+00
       21   -1    0    0  504  503  0.00000000000E+00  0.00000000000E+00  0.58664456010E+03  0.58664456010E+03  0.00000000000E+00 0. -1.
       -2   -1    0    0    0  501  0.00000000000E+00  0.00000000000E+00 -0.65958053331E+03  0.65958053331E+03  0.00000000000E+00 0.  1.
  1000006    1    1    2  502    0  0.72157641203E+02  0.30158789392E+02 -0.15929675164E+03  0.39241780393E+03  0.35000000000E+03 0.  0.
 -1000006    1    1    2    0  503 -0.44300313955E+02  0.80009274305E+02  0.20480253460E+03  0.41570191239E+03  0.35000000000E+03 0.  0.
       21    1    1    2  504  501 -0.15138425677E+02 -0.79956646223E+02  0.14840537864E+03  0.16925245528E+03  0.00000000000E+00 0. -1.
       -2    1    1    2    0  502 -0.12718901571E+02 -0.30211417475E+02 -0.26684713481E+03  0.26885292180E+03  0.00000000000E+00 0.  1.
<scales pt_clust_1="13000.00000" pt_clust_2="13000.00000" pt_clust_3="82.23015" pt_clust_4="32.77957"></scales>
<clustering>
<clus scale="   32.780">  2  6  1 -1</clus>
<clus scale="   82.230">  1  5  2 -1</clus>
<clus scale="  355.178">  2  3  1 -1</clus>
<clus scale="  355.178">  1  3  2 -1</clus>
</clustering>
</event>
<event>
 5   1  0.3464723E-02  0.5148551E+03  0.7816531E-02  0.1009973E+00
       21   -1    0    0  501  502  0.00000000000E+00  0.00000000000E+00  0.13460073985E+04  0.13460073985E+04  0.00000000000E+00 0. -1.
       21   -1    0    0  504  503  0.00000000000E+00  0.00000000000E+00 -0.96141426160E+03  0.96141426160E+03  0.00000000000E+00 0.  1.
  1000006    1    1    2  501    0 -0.18834250489E+03 -0.28399613291E+03  0.80007711581E+03  0.93741671305E+03  0.35000000000E+03 0.  0.
 -1000006    1    1    2    0  503  0.51497223882E+03  0.24960513718E+03  0.17593699910E+03  0.69350772088E+03  0.35000000000E+03 0.  0.
       21    1    1    2  504  502 -0.32662973393E+03  0.34390995728E+02 -0.59142097806E+03  0.67649722613E+03  0.00000000000E+00 0.  1.
<scales pt_clust_1="13000.00000" pt_clust_2="13000.00000" pt_clust_3="328.43527"></scales>
<clustering>
<clus scale="  328.435">  2  5  1 -1</clus>
<clus scale="  514.855">  1  3  2 -1</clus>
<clus scale="  514.855">  1  3  2 -1</clus>
</clustering>
</event>
<event>
 5   1  0.3464723E-02  0.3785892E+03  0.7816531E-02  0.1051456E+00
        1   -1    0    0  503    0  0.00000000000E+00  0.00000000000E+00  0.26307213465E+04  0.26307213465E+04  0.00000000000E+00 0. -1.
       21   -1    0    0  501  503  0.00000000000E+00  0.00000000000E+00 -0.16951775018E+03  0.16951775018E+03  0.00000000000E+00 0. -1.
  1000006    1    1    2  501    0  0.75861342453E+02  0.13142067823E+03  0.10481145113E+03  0.39561569513E+03  0.35000000000E+03 0.  0.
 -1000006    1    1    2    0  502 -0.25779753605E+02 -0.10204166424E+03  0.14148660840E+04  0.14613087054E+04  0.35000000000E+03 0.  0.
        1    1    1    2  502    0 -0.50081588848E+02 -0.29379013989E+02  0.94152606124E+03  0.94331469617E+03  0.00000000000E+00 0. -1.
<scales pt_clust_1="13000.00000" pt_clust_2="13000.00000" pt_clust_3="58.06283"></scales>
<clustering>
<clus scale="   58.063">  1  5  2 -1</clus>
<clus scale="  378.589">  2  3  1 -1</clus>
<clus scale="  378.589">  2  3  1 -1</clus>
</clustering>
</event>
<event>
 4   0  0.3464723E-02  0.4695222E+03  0.7816531E-02  0.1022055E+00
       -2   -1    0    0    0  501  0.00000000000E+00  0.00000000000E+00  0.51073081335E+03  0.51073081335E+03  0.00000000000E+00 0. -1.
        2   -1    0    0  502    0  0.00000000000E+00  0.00000000000E+00 -0.45170961166E+03  0.45170961166E+03  0.00000000000E+00 0.  1.
  1000006    1    1    2  502    0 -0.56949304840E+02 -0.30774651797E+03  0.13094812189E+03  0.48744082027E+03  0.35000000000E+03 0.  0.
 -1000006    1    1    2    0  501  0.56949304840E+02  0.30774651797E+03 -0.71926920197E+02  0.47499960473E+03  0.35000000000E+03 0.  0.
<scales pt_clust_1="13000.00000" pt_clust_2="13000.00000"></scales>
<clustering>
<clus scale="  745.190">  3  4 -1 -1</clus>
<clus scale="  469.522">  2  3  1 -1</clus>
</clustering>
</event>
<event>
 6   2  0.3464723E-02  0.3576405E+03  0.7816531E-02  0.1059522E+00
       21   -1    0    0  504  502  0.00000000000E+00  0.00000000000E+00  0.30158321524E+03  0.30158321524E+03  0.00000000000E+00 0.  1.
       21   -1    0    0  501  503  0.00000000000E+00  0.00000000000E+00 -0.60431580485E+03  0.60431580485E+03  0.00000000000E+00 0.  1.
  1000006    1    1    2  501    0 -0.77100097992E+02  0.67838273168E+02 -0.22054926725E+03  0.42624926475E+03  0.35000000000E+03 0.  0.
 -1000006    1    1    2    0  502  0.59878931859E+02  0.36959830906E+02 -0.90976906508E+02  0.36841323687E+03  0.35000000000E+03 0.  0.
       21    1    1    2  504  505 -0.70178542925E+01 -0.55533827924E+02  0.37529659538E+01  0.56101168225E+02  0.00000000000E+00 0. -1.
       21    1    1    2  505  503  0.24239020425E+02 -0.49264276150E+02  0.50406181929E+01  0.55135350253E+02  0.00000000000E+00 0. -1.
<scales pt_clust_1="13000.00000" pt_clust_2="13000.00000" pt_clust_3="110.88839" pt_clust_4="31.58425"></scales>
<clustering>
<clus scale="   31.584">  5  6 -1 -1</clus>
<clus scale="  110.888">  1  5  2 -1</clus>
<clus scale="  357.640">  1  4  2 -1</clus>
<clus scale="  357.640">  1  3  2 -1</clus>
</clustering>
</event>
<event>
 6   2  0.3464723E-02  0.5154582E+03  0.7816531E-02  0.1009821E+00
       21   -1    0    0  504  502  0.00000000000E+00  0.00000000000E+00  0.73001268289E+03  0.73001268289E+03  0.00000000000E+00 0.  1.
       21   -1    0    0  505  503  0.00000000000E+00  0.00000000000E+00 -0.92572007754E+03  0.92572007754E+03  0.00000000000E+00 0.  1.
  1000006    1    1    2  501    0  0.17296905576E+03  0.38532709673E+03 -0.13686172616E+03  0.56535510771E+03  0.35000000000E+03 0.  0.
 -1000006    1    1    2    0  502 -0.14419289698E+03 -0.30864352915E+03  0.26066517588E+03  0.55362329570E+03  0.35000000000E+03 0.  0.
       21    1    1    2  504  503  0.14905892833E+02 -0.44651638771E+02  0.10170449183E+03  0.11207032678E+03  0.00000000000E+00 0. -1.
       21    1    1    2  505  501 -0.43682051611E+02 -0.32031928811E+02 -0.42121533620E+03  0.42468403025E+03  0.00000000000E+00 0.  1.
<scales pt_clust_1="13000.00000" pt_clust_2="13000.00000" pt_clust_3="47.07393" pt_clust_4="54.20812"></scales>
<clustering>
<clus scale="   47.074">  1  5  2 -1</clus>
<clus scale="   54.208">  2  6  1 -1</clus>
<clus scale="  515.458">  1  4  2 -1</clus>
<clus scale="  515.458">  1  3  2 -1</clus>
</clustering>
</event>
<event>
 6   2  0.3464723E-02  0.5917127E+03  0.7816531E-02  0.9922750E-01
        2   -1    0    0  501    0  0.00000000000E+00  0.00000000000E+00  0.32161159645E+04  0.32161159645E+04  0.00000000000E+00 0.  1.
       21   -1    0    0  502  503  0.00000000000E+00  0.00000000000E+00 -0.70956148080E+03  0.70956148080E+03  0.00000000000E+00 0. -1.
  1000006    1    1    2  501    0  0.34430947640E+03  0.31065791348E+03  0.34543378837E+03  0.67593036394E+03  0.35000000000E+03 0.  0.
 -1000006    1    1    2    0  504 -0.65378912295E+02 -0.54388609890E+03  0.31043170234E+02  0.65080732107E+03  0.35000000000E+03 0.  0.
       21    1    1    2  504  503  0.70190943399E+02  0.11819108270E+02 -0.21046075152E+03  0.22217152785E+03  0.00000000000E+00 0. -1.
        2    1    1    2  502    0 -0.34912150751E+03  0.22140907715E+03  0.23405382766E+04  0.23767682325E+04  0.00000000000E+00 0.  1.
<scales pt_clust_1="13000.00000" pt_clust_2="13000.00000" pt_clust_3="71.17907" pt_clust_4="411.46919"></scales>
<clustering>
<clus scale="   71.179">  2  5  1 -1</clus>
<clus scale="  411.469">  1  6  2 -1</clus>
<clus scale="  591.713">  2  4  1 -1</clus>
<clus scale="  591.713">  2  3  1 -1</clus>
</clustering>
</event>
<event>
 5   1  0.3464723E-02  0.4324894E+03  0.7816531E-02  0.1033076E+00
       21   -1    0    0  501  503  0.00000000000E+00  0.00000000000E+00  0.42266277991E+03  0.42266277991E+03  0.00000000000E+00 0. -1.
       -2   -1    0    0    0  501  0.00000000000E+00  0.00000000000E+00 -0.69752170237E+03  0.69752170237E+03  0.00000000000E+00 0. -1.
  1000006    1    1    2  502    0  0.13128558476E+03  0.23905865792E+03 -0.65187468692E+01  0.44376507383E+03  0.35000000000E+03 0.  0.
 -1000006    1    1    2    0  503 -0.99145145691E+02 -0.21427065631E+03 -0.17746164090E+02  0.42255958208E+03  0.35000000000E+03 0.  0.
       -2    1    1    2    0  502 -0.32140439066E+02 -0.24788001616E+02 -0.25059401150E+03  0.25385982637E+03  0.00000000000E+00 0. -1.
<scales pt_clust_1="13000.00000" pt_clust_2="13000.00000" pt_clust_3="40.58883"></scales>
<clustering>
<clus scale="   40.589">  2  5  1 -1</clus>
<clus scale="  432.489">  2  3  1 -1</clus>
<clus scale="  432.489">  1  3  2 -1</clus>
</clustering>
</event>
<event>
 4   0  0.3464723E-02  0.4941519E+03  0.7816531E-02  0.1015317E+00
       21   -1    0    0  501  502  0.00000000000E+00  0.00000000000E+00  0.18053963177E+03  0.18053963177E+03  0.00000000000E+00 0. -1.
       21   -1    0    0  502  503  0.00000000000E+00  0.00000000000E+00 -0.14321240875E+04  0.14321240875E+04  0.00000000000E+00 0.  1.
  1000006    1    1    2  501    0 -0.31995222831E+03 -0.13898436765E+03 -0.43570559058E+03  0.65880607505E+03  0.35000000000E+03 0.  0.
 -1000006    1    1    2    0  503  0.31995222831E+03  0.13898436765E+03 -0.81587886520E+03  0.95385764427E+03  0.35000000000E+03 0.  0.
<scales pt_clust_1="13000.00000" pt_clust_2="13000.00000"></scales>
<clustering>
<clus scale="  494.152">  1  3  2 -1</clus>
<clus scale="  494.152">  1  3  2 -1</clus>
</clustering>
</event>
<event>
 6   2  0.3464723E-02  0.3559024E+03  0.7816531E-02  0.1060218E+00
        2   -1    0    0  504    0  0.00000000000E+00  0.00000000000E+00  0.40506020943E+04  0.40506020943E+04  0.00000000000E+00 0. -1.
       21   -1    0    0  502  503  0.00000000000E+00  0.00000000000E+00 -0.69950495691E+02  0.69950495691E+02  0.00000000000E+00 0. -1.
  1000006    1    1    2  501    0  0.93576094759E+01  0.44735260139E+02  0.60388873466E+03  0.69947867173E+03  0.35000000000E+03 0.  0.
 -1000006    1    1    2    0  503 -0.10103981408E+03 -0.37162208974E+02  0.26346427566E+04  0.26599685202E+04  0.35000000000E+03 0.  0.
       21    1    1    2  504  501  0.31936633841E+02  0.50172870481E+02  0.52944195782E+03  0.53277204526E+03  0.00000000000E+00 0. -1.
        2    1    1    2  502    0  0.59745570759E+02 -0.57745921645E+02  0.21267814957E+03  0.22833335279E+03  0.00000000000E+00 0. -1.
<scales pt_clust_1="13000.00000" pt_clust_2="13000.00000" pt_clust_3="59.47491" pt_clust_4="82.42607"></scales>
<clustering>
<clus scale="   59.475">  1  5  2 -1</clus>
<clus scale="   82.426">  2  6  1 -1</clus>
<clus scale="  649.489">  3  4 -1 -1</clus>
<clus scale="  355.902">  2  3  1 -1</clus>
</clustering>
</event>
<event>
 5   1  0.3464723E-02  0.5189244E+03  0.7816531E-02  0.1008954E+00
       21   -1    0    0  501  502  0.00000000000E+00  0.00000000000E+00  0.90626401747E+03  0.90626401747E+03  0.00000000000E+00 0. -1.
       21   -1    0    0  502  503  0.00000000000E+00  0.00000000000E+00 -0.41676416711E+03  0.41676416711E+03  0.00000000000E+00 0.  1.
  1000006    1    1    2  501    0  0.11777898527E+03  0.37591025411E+03  0.50928720778E+03  0.73283959263E+03  0.35000000000E+03 0.  0.
 -1000006    1    1    2    0  504 -0.12870938656E+03 -0.33805041573E+03  0.54319914851E+02  0.50625570902E+03  0.35000000000E+03 0.  0.
       21    1    1    2  504  503  0.10930401293E+02 -0.37859838375E+02 -0.74107272267E+02  0.83932882931E+02  0.00000000000E+00 0.  1.
<scales pt_clust_1="13000.00000" pt_clust_2="13000.00000" pt_clust_3="39.40610"></scales>
<clustering>
<clus scale="   39.406">  2  5  1 -1</clus>
<clus scale="  518.924">  1  3  2 -1</clus>
<clus scale="  518.924">  1  3  2 -1</clus>
</clustering>
</event>
<event>
 5   1  0.3464723E-02  0.4209183E+03  0.7816531E-02  0.1036768E+00
       21   -1    0    0  502  503  0.00000000000E+00  0.00000000000E+00  0.79500437835E+03  0.79500437835E+03  0.00000000000E+00 0.  1.
        2   -1    0    0  501    0  0.00000000000E+00  0.00000000000E+00 -0.51221750423E+03  0.51221750423E+03  0.00000000000E+00 0. -1.
  1000006    1    1    2  501    0  0.18953957138E+03 -0.12972346205E+03  0.24966602665E+03  0.48742850818E+03  0.35000000000E+03 0.  0.
 -1000006    1    1    2    0  503 -0.91761542110E+02  0.24355064629E+03  0.28895837391E+03  0.52319598600E+03  0.35000000000E+03 0.  0.
        2    1    1    2  502    0 -0.97778029266E+02 -0.11382718424E+03 -0.25583752643E+03  0.29659738841E+03  0.00000000000E+00 0. -1.
<scales pt_clust_1="13000.00000" pt_clust_2="13000.00000" pt_clust_3="150.05723"></scales>
<clustering>
<clus scale="  150.057">  2  5  1 -1</clus>
<clus scale="  420.918">  2  3  1 -1</clus>
<clus scale="  420.918">  1  3  2 -1</clus>
</clustering>
</event>
<event>
 5   1  0.3464723E-02  0.3567907E+03  0.7816531E-02  0.1059862E+00
       21   -1    0    0  501  503  0.00000000000E+00  0.00000000000E+00  0.10453450966E+04  0.10453450966E+04  0.00000000000E+00 0.  1.
        2   -1    0    0  503    0  0.00000000000E+00  0.00000000000E+00 -0.63701048616E+03  0.63701048616E+03  0.00000000000E+00 0.  1.
  1000006    1    1    2  501    0  0.36419745474E+02  0.52143706462E+02  0.77910527904E+03  0.85647556872E+03  0.35000000000E+03 0.  0.
 -1000006    1    1    2    0  502 -0.76101735019E+02 -0.55543829257E+02  0.81788053596E+02  0.37157216897E+03  0.35000000000E+03 0.  0.
        2    1    1    2  502    0  0.39681989545E+02  0.34001227949E+01 -0.45255872216E+03  0.45430784511E+03  0.00000000000E+00 0.  1.
<scales pt_clust_1="13000.00000" pt_clust_2="13000.00000" pt_clust_3="39.82739"></scales>
<clustering>
<clus scale="   39.827">  2  5  1 -1</clus>
<clus scale="  356.791">  2  4  1 -1</clus>
<clus scale="  356.791">  1  3  2 -1</clus>
</clustering>
</event>
<event>
 6   2  0.3464723E-02  0.5516428E+03  0.7816531E-02  0.1007219E+00
       21   -1    0    0  505  502  0.00000000000E+00  0.00000000000E+00  0.16367704786E+04  0.16367704786E+04  0.00000000000E+00 0.  1.
       21   -1    0    0  501  503  0.00000000000E+00  0.00000000000E+00 -0.41313215676E+03  0.41313215676E+03  0.00000000000E+00 0.  1.
  1000006    1    1    2  501    0 -0.13421870288E+03  0.24712991169E+03  0.33833449291E+03  0.56219043264E+03  0.35000000000E+03 0.  0.
 -1000006    1    1    2    0  502 -0.35914838513E+03 -0.21750087175E+03  0.48838523700E+03  0.73301727911E+03  0.35000000000E+03 0.  0.
       21    1    1    2  504  503  0.18134494219E+02  0.45819361911E+02 -0.69076419094E+02  0.84851785376E+02  0.00000000000E+00 0.  1.
       21    1    1    2  505  504  0.47523259379E+03 -0.75448401858E+02  0.46599501099E+03  0.66984313821E+03  0.00000000000E+00 0.  1.
<scales pt_clust_1="13000.00000" pt_clust_2="13000.00000" pt_clust_3="49.27752" pt_clust_4="426.39163"></scales>
<clustering>
<clus scale="   49.278">  2  5  1 -1</clus>
<clus scale="  455.825">  2  3  1 -1</clus>
<clus scale="  426.392">  2  6  1 -1</clus>
<clus scale="  551.643">  1  3  2 -1</clus>
</clustering>
</event>
<event>
 5   1  0.3464723E-02  0.3530894E+03  0.7816531E-02  0.1061354E+00
       21   -1    0    0  501  502  0.00000000000E+00  0.00000000000E+00  0.74381435813E+02  0.74381435813E+02  0.00000000000E+00 0. -1.
       21   -1    0    0  504  503  0.00000000000E+00  0.00000000000E+00 -0.21060423389E+04  0.21060423389E+04  0.00000000000E+00 0. -1.
  1000006    1    1    2  501    0  0.86233116969E+01 -0.47585442097E+02 -0.62371419254E+03  0.71683898456E+03  0.35000000000E+03 0.  0.
 -1000006    1    1    2    0  503  0.35983357015E+02  0.43292070072E+02 -0.12282409747E+04  0.12783758826E+04  0.35000000000E+03 0.  0.
       21    1    1    2  504  502 -0.44606668712E+02  0.42933720258E+01 -0.17970573584E+03  0.18520890754E+03  0.00000000000E+00 0. -1.
<scales pt_clust_1="13000.00000" pt_clust_2="13000.00000" pt_clust_3="44.81281"></scales>
<clustering>
<clus scale="   44.813">  2  5  1 -1</clus>
<clus scale="  353.089">  1  3  2 -1</clus>
<clus scale="  353.089">  1  3  2 -1</clus>
</clustering>
</event>
<event>
 5   1  0.3464723E-02  0.3693399E+03  0.7816531E-02  0.1054946E+00
       21   -1    0    0  501  502  0.00000000000E+00  0.00000000000E+00  0.83841866679E+03  0.83841866679E+03  0.00000000000E+00 0. -1.
       21   -1    0    0  504  503  0.00000000000E+00  0.00000000000E+00 -0.27444687991E+03  0.27444687991E+03  0.00000000000E+00 0. -1.
  1000006    1    1    2  501    0  0.12071063197E+03  0.41447495503E+02  0.57570773980E+03  0.68573198352E+03  0.35000000000E+03 0.  0.
 -1000006    1    1    2    0  503 -0.92466238739E+02 -0.39242646484E+00  0.28438459054E+02  0.36312381533E+03  0.35000000000E+03 0.  0.
       21    1    1    2  504  502 -0.28244393229E+02 -0.41055069038E+02 -0.40174411973E+02  0.64009747851E+02  0.00000000000E+00 0. -1.
<scales pt_clust_1="13000.00000" pt_clust_2="13000.00000" pt_clust_3="49.83236"></scales>
<clustering>
<clus scale="   49.832">  2  5  1 -1</clus>
<clus scale="  369.340">  1  3  2 -1</clus>
<clus scale="  369.340">  1  3  2 -1</clus>
</clustering>
</event>
<event>
 5   1  0.3464723E-02  0.3605303E+03  0.7816531E-02  0.1058374E+00
        2   -1    0    0  501    0  0.00000000000E+00  0.00000000000E+00  0.41067035440E+04  0.41067035440E+04  0.00000000000E+00 0.  1.
       21   -1    0    0  502  503  0.00000000000E+00  0.00000000000E+00 -0.48547959930E+02  0.48547959930E+02  0.00000000000E+00 0.  1.
  1000006    1    1    2  501    0  0.77278971224E+02  0.10574742918E+03  0.18961964246E+04  0.19326705458E+04  0.35000000000E+03 0.  0.
 -1000006    1    1    2    0  503  0.26988808992E+02 -0.73195607257E+02  0.11466407555E+04  0.12014037684E+04  0.35000000000E+03 0.  0.
        2    1    1    2  502    0 -0.10426778022E+03 -0.32551821926E+02  0.10153184040E+04  0.10211771897E+04  0.00000000000E+00 0.  1.
<scales pt_clust_1="13000.00000" pt_clust_2="13000.00000" pt_clust_3="109.23091"></scales>
<clustering>
<clus scale="  109.231">  1  5  2 -1</clus>
<clus scale="  360.530">  1  3  2 -1</clus>
<clus scale="  360.530">  2  3  1 -1</clus>
</clustering>
</event>
<event>
 6   2  0.3464723E-02  0.3621259E+03  0.7816531E-02  0.1057745E+00
       21   -1    0    0  505  502  0.00000000000E+00  0.00000000000E+00  0.50811043896E+03  0.50811043896E+03  0.00000000000E+00 0.  1.
       21   -1    0    0  504  503  0.00000000000E+00  0.00000000000E+00 -0.14064615661E+04  0.14064615661E+04  0.00000000000E+00 0.  1.
  1000006    1    1    2  501    0 -0.69139172298E+02  0.13243859487E+03 -0.10628220362E+03  0.39511531654E+03  0.35000000000E+03 0.  0.
 -1000006    1    1    2    0  502  0.28337356870E+02 -0.66189162077E+02  0.24883026904E+03  0.43543141109E+03  0.35000000000E+03 0.  0.
       21    1    1    2  504  501  0.24963576428E+02  0.21735470706E+02 -0.96828730895E+03  0.96885289054E+03  0.00000000000E+00 0.  1.
       21    1    1    2  505  503  0.15838239000E+02 -0.87984903501E+02 -0.72611883610E+02  0.11517238688E+03  0.00000000000E+00 0.  1.
<scales pt_clust_1="13000.00000" pt_clust_2="13000.00000" pt_clust_3="33.10001" pt_clust_4="85.97681"></scales>
<clustering>
<clus scale="   33.100">  2  5  1 -1</clus>
<clus scale="   85.977">  2  6  1 -1</clus>
<clus scale="  362.126">  2  3  1 -1</clus>
<clus scale="  362.126">  1  3  2 -1</clus>
</clustering>
</event>
<event>
 5   1  0.3464723E-02  0.3585800E+03  0.7816531E-02  0.1059148E+00
       21   -1    0    0  501  502  0.00000000000E+00  0.00000000000E+00  0.15562338183E+03  0.15562338183E+03  0.00000000000E+00 0. -1.
       21   -1    0    0  504  503  0.00000000000E+00  0.00000000000E+00 -0.13093351152E+04  0.13093351152E+04  0.00000000000E+00 0. -1.
  1000006    1    1    2  501    0  0.49811951667E+02 -0.21510151010E+02 -0.19363320136E+03  0.40365546422E+03  0.35000000000E+03 0.  0.
 -1000006    1    1    2    0  503 -0.50753199315E+02  0.71431965902E+02 -0.94109043797E+03  0.10078837361E+04  0.35000000000E+03 0.  0.
       21    1    1    2  504  502  0.94124764822E+00 -0.49921814892E+02 -0.18988094045E+02  0.53419296745E+02  0.00000000000E+00 0. -1.
<scales pt_clust_1="13000.00000" pt_clust_2="13000.00000" pt_clust_3="49.93069"></scales>
<clustering>
<clus scale="   49.931">  1  5  2 -1</clus>
<clus scale="  358.580">  1  3  2 -1</clus>
<clus scale="  358.580">  1  3  2 -1</clus>
</clustering>
</event>
<event>
 5   1  0.3464723E-02  0.6217570E+03  0.7816531E-02  0.9861268E-01
       21   -1    0    0  503  502  0.00000000000E+00  0.00000000000E+00  0.71426630298E+03  0.71426630298E+03  0.00000000000E+00 0.  1.
       21   -1    0    0  501  503  0.00000000000E+00  0.00000000000E+00 -0.75348313311E+03  0.75348313311E+03  0.00000000000E+00 0. -1.
  1000006    1    1    2  501    0 -0.54166431379E+02  0.50718859548E+03 -0.37476499354E+03  0.72327247567E+03  0.35000000000E+03 0.  0.
 -1000006    1    1    2    0  504  0.29105543825E+02 -0.52459128786E+03  0.30433998076E+03  0.70083234505E+03  0.35000000000E+03 0.  0.
       21    1    1    2  504  502  0.25060887554E+02  0.17402692382E+02  0.31208182645E+02  0.43644615374E+02  0.00000000000E+00 0.  1.
<scales pt_clust_1="13000.00000" pt_clust_2="13000.00000" pt_clust_3="30.51068"></scales>
<clustering>
<clus scale="   30.511">  1  5  2 -1</clus>
<clus scale="  621.757">  2  3  1 -1</clus>
<clus scale="  621.757">  1  3  2 -1</clus>
</clustering>
</event>
<event>
 5   1  0.3464723E-02  0.3980146E+03  0.7816531E-02  0.1044469E+00
       21   -1    0    0  501  502  0.00000000000E+00  0.00000000000E+00  0.89588236659E+03  0.89588236659E+03  0.00000000000E+00 0.  1.
       21   -1    0    0  504  503  0.00000000000E+00  0.00000000000E+00 -0.30716346497E+03  0.30716346497E+03  0.00000000000E+00 0.  1.
  1000006    1    1    2  501    0 -0.16054520543E+03  0.10590836368E+03  0.22834347623E+03  0.46003487653E+03  0.35000000000E+03 0.  0.
 -1000006    1    1    2    0  503  0.12153552655E+03 -0.14736516315E+03  0.21418267004E+02  0.39930704688E+03  0.35000000000E+03 0.  0.
       21    1    1    2  504  502  0.39009678879E+02  0.41456799469E+02  0.33895715838E+03  0.34370390816E+03  0.00000000000E+00 0.  1.
<scales pt_clust_1="13000.00000" pt_clust_2="13000.00000" pt_clust_3="56.92470"></scales>
<clustering>
<clus scale="   56.925">  1  5  2 -1</clus>
<clus scale="  398.015">  1  3  2 -1</clus>
<clus scale="  398.015">  1  3  2 -1</clus>
</clustering>
</event>
<event>
 6   2  0.3464723E-02  0.3549263E+03  0.7816531E-02  0.1060611E+00
       21   -1    0    0  504  503  0.00000000000E+00  0.00000000000E+00  0.69101300258E+03  0.69101300258E+03  0.00000000000E+00 0.  1.
        1   -1    0    0  501    0  0.00000000000E+00  0.00000000000E+00 -0.86636614811E+03  0.86636614811E+03  0.00000000000E+00 0. -1.
  1000006    1    1    2  501    0 -0.49332989020E+01  0.34273369725E+02 -0.16264274573E+03  0.38749408260E+03  0.35000000000E+03 0.  0.
 -1000006    1    1    2    0  503 -0.16392422898E+02  0.79675761007E+02  0.49569059318E+03  0.61223043259E+03  0.35000000000E+03 0.  0.
       21    1    1    2  504  502 -0.33812822210E+02 -0.11415951586E+02  0.41466882861E+00  0.35690374706E+02  0.00000000000E+00 0. -1.
        1    1    1    2  502    0  0.55138544010E+02 -0.10253317915E+03 -0.50881566181E+03  0.52196426081E+03  0.00000000000E+00 0. -1.
<scales pt_clust_1="13000.00000" pt_clust_2="13000.00000" pt_clust_3="35.68797" pt_clust_4="116.36097"></scales>
<clustering>
<clus scale="   35.688">  1  5  2 -1</clus>
<clus scale="  116.361">  2  6  1 -1</clus>
<clus scale="  354.926">  1  4  2 -1</clus>
<clus scale="  354.926">  1  3  2 -1</clus>
</clustering>
</event>
<event>
 4   0  0.3464723E-02  0.3511560E+03  0.7816531E-02  0.1062142E+00
       21   -1    0    0  501  502  0.00000000000E+00  0.00000000000E+00  0.10848056418E+03  0.10848056418E+03  0.00000000000E+00 0. -1.
       21   -1    0    0  502  503  0.00000000000E+00  0.00000000000E+00 -0.11396769902E+04  0.11396769902E+04  0.00000000000E+00 0. -1.
  1000006    1    1    2  501    0 -0.27848889922E+02 -0.59145344650E+01 -0.48373598907E+03  0.59775500794E+03  0.35000000000E+03 0.  0.
 -1000006    1    1    2    0  503  0.27848889922E+02  0.59145344650E+01 -0.54746043693E+03  0.65040254642E+03  0.35000000000E+03 0.  0.
<scales pt_clust_1="13000.00000" pt_clust_2="13000.00000"></scales>
<clustering>
<clus scale="  351.156">  1  3  2 -1</clus>
<clus scale="  351.156">  1  3  2 -1</clus>
</clustering>
</event>
<event>
 5   1  0.3464723E-02  0.3644085E+03  0.7816531E-02  0.1056852E+00
       21   -1    0    0  501  502  0.00000000000E+00  0.00000000000E+00  0.47434253759E+03  0.47434253759E+03  0.00000000000E+00 0.  1.
       21   -1    0    0  504  503  0.00000000000E+00  0.00000000000E+00 -0.37050068452E+03  0.37050068452E+03  0.00000000000E+00 0.  1.
  1000006    1    1    2  501    0 -0.66370417294E+02 -0.30083154588E+02  0.29509712933E+02  0.35872113353E+03  0.35000000000E+03 0.  0.
 -1000006    1    1    2    0  503  0.10984741221E+03  0.64568391494E+02 -0.23965126997E+02  0.37324235888E+03  0.35000000000E+03 0.  0.
       21    1    1    2  504  502 -0.43476994913E+02 -0.34485236905E+02  0.98297267134E+02  0.11287972970E+03  0.00000000000E+00 0.  1.
<scales pt_clust_1="13000.00000" pt_clust_2="13000.00000" pt_clust_3="55.49307"></scales>
<clustering>
<clus scale="   55.493">  1  5  2 -1</clus>
<clus scale="  364.409">  1  3  2 -1</clus>
<clus scale="  364.409">  1  3  2 -1</clus>
</clustering>
</event>
<event>
 4   0  0.3464723E-02  0.4449267E+03  0.7816531E-02  0.1029246E+00
        2   -1    0    0  502    0  0.00000000000E+00  0.00000000000E+00  0.71779240566E+03  0.71779240566E+03  0.00000000000E+00 0. -1.
       -2   -1    0    0    0  501  0.00000000000E+00  0.00000000000E+00 -0.33303124216E+03  0.33303124216E+03  0.00000000000E+00 0.  1.
  1000006    1    1    2  502    0 -0.19976842999E+03 -0.18855325966E+03 -0.25447059666E+02  0.44565380083E+03  0.35000000000E+03 0.  0.
 -1000006    1    1    2    0  501  0.19976842999E+03  0.18855325966E+03  0.41020822317E+03  0.60516984699E+03  0.35000000000E+03 0.  0.
<scales pt_clust_1="13000.00000" pt_clust_2="13000.00000"></scales>
<clustering>
<clus scale="  767.261">  3  4 -1 -1</clus>
<clus scale="  444.927">  1  3  2 -1</clus>
</clustering>
</event>
<event>
 6   2  0.3464723E-02  0.4779706E+03  0.7816531E-02  0.1019694E+00
       21   -1    0    0  505  502  0.00000000000E+00  0.00000000000E+00  0.29961706477E+04  0.29961706477E+04  0.00000000000E+00 0.  1.
       21   -1    0    0  501  503  0.00000000000E+00  0.00000000000E+00 -0.11147827540E+03  0.11147827540E+03  0.00000000000E+00 0.  1.
  1000006    1    1    2  501    0 -0.32823118128E+03 -0.10728300748E+01  0.89127827848E+03  0.10122321023E+04  0.35000000000E+03 0.  0.
 -1000006    1    1    2    0  504  0.31841363086E+03 -0.74450745033E+02  0.11746471921E+04  0.12685527895E+04  0.35000000000E+03 0.  0.
       21    1    1    2  504  502 -0.22008702875E+02  0.79974827966E+02  0.61790863351E+03  0.62345122943E+03  0.00000000000E+00 0.  1.
       21    1    1    2  505  503  0.31826253293E+02 -0.44512528583E+01  0.20085826817E+03  0.20341280182E+03  0.00000000000E+00 0.  1.
<scales pt_clust_1="13000.00000" pt_clust_2="13000.00000" pt_clust_3="80.38627" pt_clust_4="32.13602"></scales>
<clustering>
<clus scale="   32.136">  1  6  2 -1</clus>
<clus scale="   80.386">  1  5  2 -1</clus>
<clus scale="  477.971">  1  4  2 -1</clus>
<clus scale="  477.971">  1  3  2 -1</clus>
</clustering>
</event>
<event>
 5   1  0.3464723E-02  0.5184442E+03  0.7816531E-02  0.1009074E+00
        2   -1    0    0  503    0  0.00000000000E+00  0.00000000000E+00  0.57215548767E+03  0.57215548767E+03  0.00000000000E+00 0.  1.
       -2   -1    0    0    0  501  0.00000000000E+00  0.00000000000E+00 -0.94312619859E+03  0.94312619859E+03  0.00000000000E+00 0. -1.
  1000006    1    1    2  502    0 -0.39763940961E+03  0.43854613338E+02 -0.35714670185E+03  0.64038589446E+03  0.35000000000E+03 0.  0.
 -1000006    1    1    2    0  501  0.36115138246E+03 -0.50483853181E+02 -0.29903581809E+03  0.58728303311E+03  0.35000000000E+03 0.  0.
       21    1    1    2  503  502  0.36488027153E+02  0.66292398434E+01  0.28521180903E+03  0.28761275868E+03  0.00000000000E+00 0.  1.
<scales pt_clust_1="13000.00000" pt_clust_2="13000.00000" pt_clust_3="37.08535"></scales>
<clustering>
<clus scale="   37.085">  1  5  2 -1</clus>
<clus scale="  841.261">  3  4 -1 -1</clus>
<clus scale="  518.444">  1  3  2 -1</clus>
</clustering>
</event>
<event>
 5   1  0.3464723E-02  0.3656216E+03  0.7816531E-02  0.1056380E+00
       21   -1    0    0  503  502  0.00000000000E+00  0.00000000000E+00  0.12718337331E+03  0.12718337331E+03  0.00000000000E+00 0.  1.
       21   -1    0    0  504  503  0.00000000000E+00  0.00000000000E+00 -0.15744817766E+04  0.15744817766E+04  0.00000000000E+00 0.  1.
  1000006    1    1    2  501    0  0.11526888437E+03 -0.33782013238E+02 -0.10906114465E+04  0.11516776751E+04  0.35000000000E+03 0.  0.
 -1000006    1    1    2    0  502 -0.10162011457E+03  0.69923902002E+01 -0.25737936885E+03  0.44622828318E+03  0.35000000000E+03 0.  0.
       21    1    1    2  504  501 -0.13648769805E+02  0.26789623038E+02 -0.99307587884E+02  0.10375919155E+03  0.00000000000E+00 0.  1.
<scales pt_clust_1="13000.00000" pt_clust_2="13000.00000" pt_clust_3="30.06614"></scales>
<clustering>
<clus scale="   30.066">  2  5  1 -1</clus>
<clus scale="  365.622">  2  3  1 -1</clus>
<clus scale="  365.622">  1  3  2 -1</clus>
</clustering>
</event>
<event>
 4   0  0.3464723E-02  0.4726347E+03  0.7816531E-02  0.1021179E+00
        1   -1    0    0  502    0  0.00000000000E+00  0.00000000000E+00  0.82824129012E+03  0.82824129012E+03  0.00000000000E+00 0. -1.
       -1   -1    0    0    0  501  0.00000000000E+00  0.00000000000E+00 -0.30634020192E+03  0.30634020192E+03  0.00000000000E+00 0.  1.
  1000006    1    1    2  502    0 -0.24585079128E+03  0.20109943450E+03  0.64780304514E+02  0.47705354205E+03  0.35000000000E+03 0.  0.
 -1000006    1    1    2    0  501  0.24585079128E+03 -0.20109943450E+03  0.45712078369E+03  0.65752794998E+03  0.35000000000E+03 0.  0.
<scales pt_clust_1="13000.00000" pt_clust_2="13000.00000"></scales>
<clustering>
<clus scale="  804.608">  3  4 -1 -1</clus>
<clus scale="  472.635">  1  3  2 -1</clus>
</clustering>
</event>
<event>
 4   0  0.3464723E-02  0.3781751E+03  0.7816531E-02  0.1051610E+00
       21   -1    0    0  503  502  0.00000000000E+00  0.00000000000E+00  0.74495537395E+02  0.74495537395E+02  0.00000000000E+00 0. -1.
       21   -1    0    0  501  503  0.00000000000E+00  0.00000000000E+00 -0.19204063748E+04  0.19204063748E+04  0.00000000000E+00 0. -1.
  1000006    1    1    2  501    0  0.76182781058E+02  0.12129554768E+03 -0.94070049056E+03  0.10138707210E+04  0.35000000000E+03 0.  0.
 -1000006    1    1    2    0  502 -0.76182781058E+02 -0.12129554768E+03 -0.90521034688E+03  0.98103119121E+03  0.35000000000E+03 0.  0.
<scales pt_clust_1="13000.00000" pt_clust_2="13000.00000"></scales>
<clustering>
<clus scale="  378.175">  2  3  1 -1</clus>
<clus scale="  378.175">  1  3  2 -1</clus>
</clustering>
</event>
<event>
 5   1  0.3464723E-02  0.5009244E+03  0.7816531E-02  0.1013538E+00
        2   -1    0    0  503    0  0.00000000000E+00  0.00000000000E+00  0.19553470273E+04  0.19553470273E+04  0.00000000000E+00 0. -1.
       -2   -1    0    0    0  501  0.00000000000E+00  0.00000000000E+00 -0.29518170596E+03  0.29518170596E+03  0.00000000000E+00 0.  1.
  1000006    1    1    2  502    0  0.93000113843E+02 -0.36658134416E+03  0.13160535907E+04  0.14133392929E+04  0.35000000000E+03 0.  0.
 -1000006    1    1    2    0  501 -0.52372958654E+02  0.35109251718E+03  0.83011395065E+01  0.49857576289E+03  0.35000000000E+03 0.  0.
       21    1    1    2  503  502 -0.40627155189E+02  0.15488826973E+02  0.33581059108E+03  0.33861367748E+03  0.00000000000E+00 0.  1.
<scales pt_clust_1="13000.00000" pt_clust_2="13000.00000" pt_clust_3="43.47953"></scales>
<clustering>
<clus scale="   43.480">  1  5  2 -1</clus>
<clus scale=" 1237.786">  3  4 -1 -1</clus>
<clus scale="  500.924">  1  3  2 -1</clus>
</clustering>
</event>
<event>
 5   1  0.3464723E-02  0.3696592E+03  0.7816531E-02  0.1054823E+00
       21   -1    0    0  502  503  0.00000000000E+00  0.00000000000E+00  0.43895862720E+03  0.43895862720E+03  0.00000000000E+00 0. -1.
        2   -1    0    0  501    0  0.00000000000E+00  0.00000000000E+00 -0.19623179220E+04  0.19623179220E+04  0.00000000000E+00 0.  1.
  1000006    1    1    2  501    0 -0.36013879781E+02 -0.70453184276E+02 -0.62674772102E+02  0.36426470838E+03  0.35000000000E+03 0.  0.
 -1000006    1    1    2    0  503  0.52607042310E+01  0.14551360706E+03  0.16204038012E+03  0.41226080294E+03  0.35000000000E+03 0.  0.
        2    1    1    2  502    0  0.30753175550E+02 -0.75060422782E+02 -0.16227249028E+04  0.16247510378E+04  0.00000000000E+00 0.  1.
<scales pt_clust_1="13000.00000" pt_clust_2="13000.00000" pt_clust_3="81.11612"></scales>
<clustering>
<clus scale="   81.116">  2  5  1 -1</clus>
<clus scale="  369.659">  2  3  1 -1</clus>
<clus scale="  369.659">  1  3  2 -1</clus>
</clustering>
</event>
<event>
 6   2  0.3464723E-02  0.3708181E+03  0.7816531E-02  0.1054381E+00
       21   -1    0    0  505  502  0.00000000000E+00  0.00000000000E+00  0.28388346617E+03  0.28388346617E+03  0.00000000000E+00 0. -1.
       21   -1    0    0  501  503  0.00000000000E+00  0.00000000000E+00 -0.11897407144E+04  0.11897407144E+04  0.00000000000E+00 0. -1.
  1000006    1    1    2  501    0 -0.70187079495E+01  0.52174396135E+02 -0.45013772438E+03  0.57262151617E+03  0.35000000000E+03 0.  0.
 -1000006    1    1    2    0  502 -0.24776504148E+03 -0.38591987451E+02 -0.15229845798E+03  0.45669648299E+03  0.35000000000E+03 0.  0.
       21    1    1    2  504  503  0.99234135286E+02  0.68118177201E+02 -0.21781779337E+03  0.24886158961E+03  0.00000000000E+00 0. -1.
       21    1    1    2  505  504  0.15554961414E+03 -0.81700585885E+02 -0.85603272461E+02  0.19544459176E+03  0.00000000000E+00 0. -1.
<scales pt_clust_1="13000.00000" pt_clust_2="13000.00000" pt_clust_3="120.36403" pt_clust_4="184.61848"></scales>
<clustering>
<clus scale="  120.364">  2  5  1 -1</clus>
<clus scale="  184.618">  1  6  2 -1</clus>
<clus scale="  370.818">  2  3  1 -1</clus>
<clus scale="  370.818">  1  3  2 -1</clus>
</clustering>
</event>
<event>
 5   1  0.3464723E-02  0.6012443E+03  0.7816531E-02  0.9902828E-01
       21   -1    0    0  501  502  0.00000000000E+00  0.00000000000E+00  0.43148853319E+03  0.43148853319E+03  0.00000000000E+00 0. -1.
       21   -1    0    0  502  503  0.00000000000E+00  0.00000000000E+00 -0.15941603806E+04  0.15941603806E+04  0.00000000000E+00 0. -1.
  1000006    1    1    2  501    0 -0.29565702869E+03  0.38944425707E+03  0.76313749810E+02  0.60613834757E+03  0.35000000000E+03 0.  0.
 -1000006    1    1    2    0  504  0.32510670781E+03 -0.36618357735E+03 -0.92693755643E+03  0.11052140143E+04  0.35000000000E+03 0.  0.
       21    1    1    2  504  503 -0.29449679118E+02 -0.23260679722E+02 -0.31204804075E+03  0.31429655193E+03  0.00000000000E+00 0. -1.
<scales pt_clust_1="13000.00000" pt_clust_2="13000.00000" pt_clust_3="37.52789"></scales>
<clustering>
<clus scale="   37.528">  2  5  1 -1</clus>
<clus scale="  601.244">  2  4  1 -1</clus>
<clus scale="  601.244">  1  3  2 -1</clus>
</clustering>
</event>
<event>
 6   2  0.3464723E-02  0.3503993E+03  0.7816531E-02  0.1062451E+00
       -1   -1    0    0    0  501  0.00000000000E+00  0.00000000000E+00  0.52082677221E+03  0.52082677221E+03  0.00000000000E+00 0. -1.
       21   -1    0    0  502  503  0.00000000000E+00  0.00000000000E+00 -0.42116874189E+03  0.42116874189E+03  0.00000000000E+00 0. -1.
  1000006    1    1    2  502    0  0.13420704353E+02 -0.26887581502E+02 -0.16303089951E+03  0.38727526585E+03  0.35000000000E+03 0.  0.
 -1000006    1    1    2    0  504  0.36309833588E+01 -0.11089405583E+02  0.10850199209E+03  0.36661811363E+03  0.35000000000E+03 0.  0.
       21    1    1    2  504  501  0.19591404606E+02  0.60342883121E+02  0.10626726151E+03  0.12376517098E+03  0.00000000000E+00 0.  1.
       -1    1    1    2    0  503 -0.36643092317E+02 -0.22365896036E+02  0.47919676229E+02  0.64336963636E+02  0.00000000000E+00 0. -1.
<scales pt_clust_1="13000.00000" pt_clust_2="13000.00000" pt_clust_3="55.80804" pt_clust_4="42.92959"></scales>
<clustering>
<clus scale="   42.930">  1  6  2 -1</clus>
<clus scale="   55.808">  1  5  2 -1</clus>
<clus scale="  350.399">  2  3  1 -1</clus>
<clus scale="  350.399">  2  3  1 -1</clus>
</clustering>
</event>
<event>
 4   0  0.3464723E-02  0.4965581E+03  0.7816531E-02  0.1014681E+00
        1   -1    0    0  502    0  0.00000000000E+00  0.00000000000E+00  0.48809603899E+03  0.48809603899E+03  0.00000000000E+00 0. -1.
       -1   -1    0    0    0  501  0.00000000000E+00  0.00000000000E+00 -0.59537430909E+03  0.59537430909E+03  0.00000000000E+00 0.  1.
  1000006    1    1    2  502    0 -0.34976441438E+03 -0.41651045976E+02 -0.26450832615E+03  0.56261408603E+03  0.35000000000E+03 0.  0.
 -1000006    1    1    2    0  501  0.34976441438E+03  0.41651045976E+02  0.15723005604E+03  0.52085626205E+03  0.35000000000E+03 0.  0.
<scales pt_clust_1="13000.00000" pt_clust_2="13000.00000"></scales>
<clustering>
<clus scale="  891.571">  3  4 -1 -1</clus>
<clus scale="  496.558">  1  3  2 -1</clus>
</clustering>
</event>
<event>
 5   1  0.3464723E-02  0.3508074E+03  0.7816531E-02  0.1062284E+00
       21   -1    0    0  503  502  0.00000000000E+00  0.00000000000E+00  0.64710727569E+03  0.64710727569E+03  0.00000000000E+00 0.  1.
       21   -1    0    0  501  503  0.00000000000E+00  0.00000000000E+00 -0.43690110282E+03  0.43690110282E+03  0.00000000000E+00 0.  1.
  1000006    1    1    2  501    0  0.45890652297E+01  0.76386955265E+02 -0.15406907120E+03  0.38999141677E+03  0.35000000000E+03 0.  0.
 -1000006    1    1    2    0  504 -0.23533675156E+02  0.86229025353E+02  0.86276670019E+02  0.37139324505E+03  0.35000000000E+03 0.  0.
       21    1    1    2  504  502  0.18944609926E+02 -0.16261598062E+03  0.27799857405E+03  0.32262371669E+03  0.00000000000E+00 0.  1.
<scales pt_clust_1="13000.00000" pt_clust_2="13000.00000" pt_clust_3="163.71578"></scales>
<clustering>
<clus scale="  163.716">  1  5  2 -1</clus>
<clus scale="  350.807">  1  4  2 -1</clus>
<clus scale="  350.807">  1  3  2 -1</clus>
</clustering>
</event>
<event>
 6   2  0.3464723E-02  0.4936780E+03  0.7816531E-02  0.1015442E+00
       21   -1    0    0  504  503  0.00000000000E+00  0.00000000000E+00  0.10347053759E+04  0.10347053759E+04  0.00000000000E+00 0. -1.
        1   -1    0    0  501    0  0.00000000000E+00  0.00000000000E+00 -0.12947018948E+04  0.12947018948E+04  0.00000000000E+00 0.  1.
  1000006    1    1    2  501    0  0.30384590598E+03  0.95626147008E+02  0.16871208738E+03  0.50242458439E+03  0.35000000000E+03 0.  0.
 -1000006    1    1    2    0  503 -0.30714826085E+03 -0.21325355823E+03  0.48288662087E+03  0.70391520999E+03  0.35000000000E+03 0.  0.
       21    1    1    2  504  502 -0.17227163096E+02  0.14126918987E+03  0.57480968845E+02  0.15348557240E+03  0.00000000000E+00 0.  1.
        1    1    1    2  502    0  0.20529517964E+02 -0.23641778645E+02 -0.96907619595E+03  0.96958190389E+03  0.00000000000E+00 0.  1.
<scales pt_clust_1="13000.00000" pt_clust_2="13000.00000" pt_clust_3="138.51096" pt_clust_4="31.31126"></scales>
<clustering>
<clus scale="   31.311">  2  6  1 -1</clus>
<clus scale="  138.511">  2  5  1 -1</clus>
<clus scale="  493.678">  1  4  2 -1</clus>
<clus scale="  493.678">  1  3  2 -1</clus>
</clustering>
</event>
<event>
 5   1  0.3464723E-02  0.3741968E+03  0.7816531E-02  0.1053100E+00
       21   -1    0    0  504  502  0.00000000000E+00  0.00000000000E+00  0.10619045816E+03  0.10619045816E+03  0.00000000000E+00 0. -1.
       21   -1    0    0  502  503  0.00000000000E+00  0.00000000000E+00 -0.17858675112E+04  0.17858675112E+04  0.00000000000E+00 0. -1.
  1000006    1    1    2  501    0  0.87856419323E+02  0.65804476756E+02 -0.42467858972E+03  0.56116030165E+03  0.35000000000E+03 0.  0.
 -1000006    1    1    2    0  503 -0.10283545292E+03 -0.97907175990E+02 -0.12321539602E+04  0.12887452530E+04  0.35000000000E+03 0.  0.
       21    1    1    2  504  501  0.14979033596E+02  0.32102699234E+02 -0.22844503182E+02  0.42152414773E+02  0.00000000000E+00 0. -1.
<scales pt_clust_1="13000.00000" pt_clust_2="13000.00000" pt_clust_3="35.42534"></scales>
<clustering>
<clus scale="   35.425">  1  5  2 -1</clus>
<clus scale="  374.197">  1  3  2 -1</clus>
<clus scale="  374.197">  1  3  2 -1</clus>
</clustering>
</event>
<event>
 5   1  0.3464723E-02  0.6178389E+03  0.7816531E-02  0.9869072E-01
       21   -1    0    0  501  502  0.00000000000E+00  0.00000000000E+00  0.21936431479E+04  0.21936431479E+04  0.00000000000E+00 0.  1.
       21   -1    0    0  504  503  0.00000000000E+00  0.00000000000E+00 -0.33757137232E+03  0.33757137232E+03  0.00000000000E+00 0. -1.
  1000006    1    1    2  501    0 -0.46419535652E+03  0.24027361073E+03  0.54419756809E+03  0.83178105902E+03  0.35000000000E+03 0.  0.
 -1000006    1    1    2    0  503  0.43314047892E+03 -0.24953690678E+03  0.28752876608E+03  0.67457552108E+03  0.35000000000E+03 0.  0.
       21    1    1    2  504  502  0.31054877603E+02  0.92632960527E+01  0.10243454414E+04  0.10248579401E+04  0.00000000000E+00 0.  1.
<scales pt_clust_1="13000.00000" pt_clust_2="13000.00000" pt_clust_3="32.40701"></scales>
<clustering>
<clus scale="   32.407">  1  5  2 -1</clus>
<clus scale="  617.839">  1  3  2 -1</clus>
<clus scale="  617.839">  1  3  2 -1</clus>
</clustering>
</event>
<event>
 6   2  0.3464723E-02  0.4126913E+03  0.7816531E-02  0.1039472E+00
       -2   -1    0    0    0  501  0.00000000000E+00  0.00000000000E+00  0.10144745277E+04  0.10144745277E+04  0.00000000000E+00 0. -1.
       21   -1    0    0  504  503  0.00000000000E+00  0.00000000000E+00 -0.79376277556E+03  0.79376277556E+03  0.00000000000E+00 0.  1.
  1000006    1    1    2  502    0  0.70466312469E+02  0.31291064696E+03  0.16625365135E+02  0.47503155362E+03  0.35000000000E+03 0.  0.
 -1000006    1    1    2    0  503  0.64232959266E+02 -0.94569328597E+02 -0.18606347080E+03  0.41253950857E+03  0.35000000000E+03 0.  0.
       21    1    1    2  504  501 -0.10427996181E+03 -0.22103171044E+03 -0.20849269869E+03  0.32124528458E+03  0.00000000000E+00 0.  1.
       -2    1    1    2    0  502 -0.30419309927E+02  0.26903920867E+01  0.59864255646E+03  0.59942095645E+03  0.00000000000E+00 0. -1.
<scales pt_clust_1="13000.00000" pt_clust_2="13000.00000" pt_clust_3="245.85775" pt_clust_4="30.53805"></scales>
<clustering>
<clus scale="   30.538">  1  6  2 -1</clus>
<clus scale="  245.858">  2  5  1 -1</clus>
<clus scale="  412.691">  1  3  2 -1</clus>
<clus scale="  412.691">  2  3  1 -1</clus>
</clustering>
</event>
<event>
 4   0  0.3464723E-02  0.3885159E+03  0.7816531E-02  0.1047830E+00
       21   -1    0    0  503  502  0.00000000000E+00  0.00000000000E+00  0.13422616755E+03  0.13422616755E+03  0.00000000000E+00 0.  1.
       21   -1    0    0  501  503  0.00000000000E+00  0.00000000000E+00 -0.11245938199E+04  0.11245938199E+04  0.00000000000E+00 0.  1.
  1000006    1    1    2  501    0 -0.15806628419E+03 -0.58818708171E+02 -0.49892315885E+03  0.63235188706E+03  0.35000000000E+03 0.  0.
 -1000006    1    1    2    0  502  0.15806628419E+03  0.58818708171E+02 -0.49144449351E+03  0.62646810041E+03  0.35000000000E+03 0.  0.
<scales pt_clust_1="13000.00000" pt_clust_2="13000.00000"></scales>
<clustering>
<clus scale="  388.516">  2  3  1 -1</clus>
<clus scale="  388.516">  1  3  2 -1</clus>
</clustering>
</event>
<event>
 4   0  0.3464723E-02  0.4729292E+03  0.7816531E-02  0.1021097E+00
       21   -1    0    0  503  502  0.00000000000E+00  0.00000000000E+00  0.12289876966E+04  0.12289876966E+04  0.00000000000E+00 0. -1.
       21   -1    0    0  501  503  0.00000000000E+00  0.00000000000E+00 -0.22431767546E+03  0.22431767546E+03  0.00000000000E+00 0. -1.
  1000006    1    1    2  501    0  0.31533357830E+03  0.41554388715E+02  0.18667952030E+03  0.50844004182E+03  0.35000000000E+03 0.  0.
 -1000006    1    1    2    0  502 -0.31533357830E+03 -0.41554388715E+02  0.81799050081E+03  0.94486533021E+03  0.35000000000E+03 0.  0.
<scales pt_clust_1="13000.00000" pt_clust_2="13000.00000"></scales>
<clustering>
<clus scale="  472.929">  2  3  1 -1</clus>
<clus scale="  472.929">  1  3  2 -1</clus>
</clustering>
</event>
<event>
 6   2  0.3464723E-02  0.5202511E+03  0.7816531E-02  0.1021066E+00
       21   -1    0    0  502  503  0.00000000000E+00  0.00000000000E+00  0.68682140214E+03  0.68682140214E+03  0.00000000000E+00 0.  1.
        2   -1    0    0  504    0  0.00000000000E+00  0.00000000000E+00 -0.98055511354E+03  0.98055511354E+03  0.00000000000E+00 0.  1.
  1000006    1    1    2  501    0  0.35641788486E+03  0.20326765310E+03 -0.23474815060E+03  0.58818206506E+03  0.35000000000E+03 0.  0.
 -1000006    1    1    2    0  503 -0.52314744341E+01 -0.60019601074E+02  0.34945912177E+03  0.49824833028E+03  0.35000000000E+03 0.  0.
       21    1    1    2  504  501  0.70262435044E+01 -0.33409738240E+02 -0.13948840553E+02  0.36880196038E+02  0.00000000000E+00 0. -1.
        2    1    1    2  502    0 -0.35821265393E+03 -0.10983831379E+03 -0.39449584202E+03  0.54406592430E+03  0.00000000000E+00 0.  1.
<scales pt_clust_1="13000.00000" pt_clust_2="13000.00000" pt_clust_3="34.14057" pt_clust_4="384.91719"></scales>
<clustering>
<clus scale="   34.141">  2  5  1 -1</clus>
<clus scale="  355.589">  1  4  2 -1</clus>
<clus scale="  384.917">  2  6  1 -1</clus>
<clus scale="  520.251">  1  3  2 -1</clus>
</clustering>
</event>
<event>
 5   1  0.3464723E-02  0.4575609E+03  0.7816531E-02  0.1025491E+00
       21   -1    0    0  503  502  0.00000000000E+00  0.00000000000E+00  0.93437785666E+03  0.93437785666E+03  0.00000000000E+00 0.  1.
       21   -1    0    0  501  503  0.00000000000E+00  0.00000000000E+00 -0.24427673458E+03  0.24427673458E+03  0.00000000000E+00 0. -1.
  1000006    1    1    2  501    0  0.16951375548E+03  0.25950870608E+03  0.29631555769E+03  0.55351837509E+03  0.35000000000E+03 0.  0.
 -1000006    1    1    2    0  504 -0.14216862583E+03 -0.23965474171E+03  0.34124767625E+03  0.56266889903E+03  0.35000000000E+03 0.  0.
       21    1    1    2  504  502 -0.27345129654E+02 -0.19853964378E+02  0.52537888145E+02  0.62467317119E+02  0.00000000000E+00 0. -1.
<scales pt_clust_1="13000.00000" pt_clust_2="13000.00000" pt_clust_3="33.79254"></scales>
<clustering>
<clus scale="   33.793">  1  5  2 -1</clus>
<clus scale="  457.561">  2  3  1 -1</clus>
<clus scale="  457.561">  1  3  2 -1</clus>
</clustering>
</event>
<event>
 5   1  0.3464723E-02  0.3636830E+03  0.7816531E-02  0.1057135E+00
       21   -1    0    0  503  502  0.00000000000E+00  0.00000000000E+00  0.83740786709E+03  0.83740786709E+03  0.00000000000E+00 0. -1.
       21   -1    0    0  504  503  0.00000000000E+00  0.00000000000E+00 -0.17956390680E+03  0.17956390680E+03  0.00000000000E+00 0. -1.
  1000006    1    1    2  501    0  0.93369259988E+02 -0.73196864397E+02  0.25335590403E+03  0.44806786738E+03  0.35000000000E+03 0.  0.
 -1000006    1    1    2    0  502 -0.55612080456E+02  0.64159551933E+02  0.37667268620E+03  0.52114437935E+03  0.35000000000E+03 0.  0.
       21    1    1    2  504  501 -0.37757179533E+02  0.90373124643E+01  0.27815370059E+02  0.47759527158E+02  0.00000000000E+00 0.  1.
<scales pt_clust_1="13000.00000" pt_clust_2="13000.00000" pt_clust_3="38.82367"></scales>
<clustering>
<clus scale="   38.824">  2  5  1 -1</clus>
<clus scale="  363.683">  2  3  1 -1</clus>
<clus scale="  363.683">  1  3  2 -1</clus>
</clustering>
</event>
<event>
 6   2  0.3464723E-02  0.3572341E+03  0.7816531E-02  0.1059684E+00
       21   -1    0    0  501  502  0.00000000000E+00  0.00000000000E+00  0.20200643887E+03  0.20200643887E+03  0.00000000000E+00 0.  1.
       21   -1    0    0  504  503  0.00000000000E+00  0.00000000000E+00 -0.92168089889E+03  0.92168089889E+03  0.00000000000E+00 0.  1.
  1000006    1    1    2  501    0  0.13198757332E+02  0.10056039882E+03 -0.20729324073E+03  0.41923393071E+03  0.35000000000E+03 0.  0.
 -1000006    1    1    2    0  503 -0.70360374008E+02 -0.10119685396E+02 -0.40528585419E+03  0.54019405205E+03  0.35000000000E+03 0.  0.
       21    1    1    2  504  505  0.96407945487E+01 -0.45984807004E+02 -0.82015191610E+02  0.94520045755E+02  0.00000000000E+00 0.  1.
       21    1    1    2  505  502  0.47520822128E+02 -0.44455906421E+02 -0.25080173491E+02  0.69739309244E+02  0.00000000000E+00 0.  1.
<scales pt_clust_1="13000.00000" pt_clust_2="13000.00000" pt_clust_3="46.98454" pt_clust_4="67.27859"></scales>
<clustering>
<clus scale="   46.985">  2  5  1 -1</clus>
<clus scale="   67.279">  1  6  2 -1</clus>
<clus scale="  357.234">  1  3  2 -1</clus>
<clus scale="  357.234">  1  3  2 -1</clus>
</clustering>
</event>
<event>
 5   1  0.3464723E-02  0.4951088E+03  0.7816531E-02  0.1015064E+00
       21   -1    0    0  504  502  0.00000000000E+00  0.00000000000E+00  0.12388068116E+04  0.12388068116E+04  0.00000000000E+00 0. -1.
       21   -1    0    0  501  503  0.00000000000E+00  0.00000000000E+00 -0.10172306816E+04  0.10172306816E+04  0.00000000000E+00 0.  1.
  1000006    1    1    2  501    0 -0.97725766155E+02  0.31545046319E+03  0.38480628732E+03  0.61614543645E+03  0.35000000000E+03 0.  0.
 -1000006    1    1    2    0  502  0.86269142273E+02 -0.35510771405E+03  0.65104986091E+03  0.82456641629E+03  0.35000000000E+03 0.  0.
       21    1    1    2  504  503  0.11456623882E+02  0.39657250859E+02 -0.81428001828E+03  0.81532564043E+03  0.00000000000E+00 0.  1.
<scales pt_clust_1="13000.00000" pt_clust_2="13000.00000" pt_clust_3="41.27895"></scales>
<clustering>
<clus scale="   41.279">  2  5  1 -1</clus>
<clus scale="  495.109">  2  3  1 -1</clus>
<clus scale="  495.109">  1  3  2 -1</clus>
</clustering>
</event>
<event>
 4   0  0.3464723E-02  0.5788916E+03  0.7816531E-02  0.9950193E-01
        1   -1    0    0  502    0  0.00000000000E+00  0.00000000000E+00  0.59320755566E+03  0.59320755566E+03  0.00000000000E+00 0. -1.
       -1   -1    0    0    0  501  0.00000000000E+00  0.00000000000E+00 -0.57190137321E+03  0.57190137321E+03  0.00000000000E+00 0.  1.
  1000006    1    1    2  502    0  0.15433473162E+03 -0.43450699093E+03  0.75011977767E+02  0.58373138630E+03  0.35000000000E+03 0.  0.
 -1000006    1    1    2    0  501 -0.15433473162E+03  0.43450699093E+03 -0.53705795324E+02  0.58137754257E+03  0.35000000000E+03 0.  0.
<scales pt_clust_1="13000.00000" pt_clust_2="13000.00000"></scales>
<clustering>
<clus scale="  994.749">  3  4 -1 -1</clus>
<clus scale="  578.892">  1  3  2 -1</clus>
</clustering>
</event>
<event>
 4   0  0.3464723E-02  0.3841325E+03  0.7816531E-02  0.1049417E+00
       21   -1    0    0  503  502  0.00000000000E+00  0.00000000000E+00  0.14527364211E+04  0.14527364211E+04  0.00000000000E+00 0. -1.
       21   -1    0    0  501  503  0.00000000000E+00  0.00000000000E+00 -0.14488594243E+03  0.14488594243E+03  0.00000000000E+00 0. -1.
  1000006    1    1    2  501    0 -0.14305046813E+03  0.67781705439E+02  0.21716478691E+03  0.44126901171E+03  0.35000000000E+03 0.  0.
 -1000006    1    1    2    0  502  0.14305046813E+03 -0.67781705439E+02  0.10906856917E+04  0.11563533518E+04  0.35000000000E+03 0.  0.
<scales pt_clust_1="13000.00000" pt_clust_2="13000.00000"></scales>
<clustering>
<clus scale="  384.133">  2  3  1 -1</clus>
<clus scale="  384.133">  1  3  2 -1</clus>
</clustering>
</event>
<event>
 5   1  0.3464723E-02  0.8212514E+03  0.7816531E-02  0.9529756E-01
       21   -1    0    0  504  502  0.00000000000E+00  0.00000000000E+00  0.12146756229E+04  0.12146756229E+04  0.00000000000E+00 0.  1.
       21   -1    0    0  501  503  0.00000000000E+00  0.00000000000E+00 -0.94497367604E+03  0.94497367604E+03  0.00000000000E+00 0. -1.
  1000006    1    1    2  501    0 -0.32388133819E+03 -0.58573275936E+03 -0.15266678197E+03  0.77057714275E+03  0.35000000000E+03 0.  0.
 -1000006    1    1    2    0  502  0.28193192769E+03  0.81807566905E+03  0.33326976638E+02  0.93399362927E+03  0.35000000000E+03 0.  0.
       21    1    1    2  504  503  0.41949410500E+02 -0.23234290969E+03  0.38904175216E+03  0.45507852690E+03  0.00000000000E+00 0.  1.
<scales pt_clust_1="13000.00000" pt_clust_2="13000.00000" pt_clust_3="236.09951"></scales>
<clustering>
<clus scale="  236.100">  1  5  2 -1</clus>
<clus scale="  821.251">  2  3  1 -1</clus>
<clus scale="  821.251">  1  3  2 -1</clus>
</clustering>
</event>
<event>
 6   2  0.3464723E-02  0.4294216E+03  0.7816531E-02  0.1034043E+00
        2   -1    0    0  503    0  0.00000000000E+00  0.00000000000E+00  0.10415385932E+04  0.10415385932E+04  0.00000000000E+00 0. -1.
       21   -1    0    0  504  503  0.00000000000E+00  0.00000000000E+00 -0.39678707057E+03  0.39678707057E+03  0.00000000000E+00 0. -1.
  1000006    1    1    2  501    0 -0.40102540386E+02 -0.23619220630E+03 -0.95084293813E+02  0.43466768340E+03  0.35000000000E+03 0.  0.
 -1000006    1    1    2    0  502  0.10972759384E+03  0.21634359529E+03  0.32390425347E+03  0.53503145841E+03  0.35000000000E+03 0.  0.
       21    1    1    2  504  501 -0.25923621763E+02 -0.19742872078E+02 -0.13422648442E+02  0.35241774279E+02  0.00000000000E+00 0.  1.
        2    1    1    2  502    0 -0.43701431696E+02  0.39591483083E+02  0.42935421141E+03  0.43338474768E+03  0.00000000000E+00 0. -1.
<scales pt_clust_1="13000.00000" pt_clust_2="13000.00000" pt_clust_3="32.58551" pt_clust_4="59.00113"></scales>
<clustering>
<clus scale="   32.586">  2  5  1 -1</clus>
<clus scale="   59.001">  1  6  2 -1</clus>
<clus scale="  429.422">  2  3  1 -1</clus>
<clus scale="  429.422">  2  3  1 -1</clus>
</clustering>
</event>
<event>
 5   1  0.3464723E-02  0.3517336E+03  0.7816531E-02  0.1061906E+00
       21   -1    0    0  501  502  0.00000000000E+00  0.00000000000E+00  0.17266624275E+04  0.17266624275E+04  0.00000000000E+00 0. -1.
       21   -1    0    0  504  503  0.00000000000E+00  0.00000000000E+00 -0.11069888206E+03  0.11069888206E+03  0.00000000000E+00 0. -1.
  1000006    1    1    2  501    0 -0.22473099805E+02 -0.19425461704E+02  0.11756100367E+04  0.12269642812E+04  0.35000000000E+03 0.  0.
 -1000006    1    1    2    0  503  0.54391160718E+02  0.14689080446E+01  0.44985274880E+03  0.57256270544E+03  0.35000000000E+03 0.  0.
       21    1    1    2  504  502 -0.31918060913E+02  0.17956553659E+02 -0.94992400965E+01  0.37834322965E+02  0.00000000000E+00 0.  1.
<scales pt_clust_1="13000.00000" pt_clust_2="13000.00000" pt_clust_3="36.62240"></scales>
<clustering>
<clus scale="   36.622">  2  5  1 -1</clus>
<clus scale="  351.734">  1  3  2 -1</clus>
<clus scale="  351.734">  1  3  2 -1</clus>
</clustering>
</event>
<event>
 6   2  0.3464723E-02  0.6477918E+03  0.7816531E-02  0.9810931E-01
        2   -1    0    0  501    0  0.00000000000E+00  0.00000000000E+00  0.16249376810E+04  0.16249376810E+04  0.00000000000E+00 0.  1.
       21   -1    0    0  502  503  0.00000000000E+00  0.00000000000E+00 -0.55881145551E+03  0.55881145551E+03  0.00000000000E+00 0. -1.
  1000006    1    1    2  501    0  0.19054365558E+03  0.51073852678E+03  0.14752562506E+03  0.66439787588E+03  0.35000000000E+03 0.  0.
 -1000006    1    1    2    0  504 -0.16181792286E+03 -0.52313379725E+03  0.14586882288E+03  0.66605684703E+03  0.35000000000E+03 0.  0.
       21    1    1    2  504  503 -0.48516834738E+01  0.44551178873E+02 -0.27158840388E+02  0.52401803239E+02  0.00000000000E+00 0. -1.
        2    1    1    2  502    0 -0.23874049243E+02 -0.32155908408E+02  0.79989061793E+03  0.80089261036E+03  0.00000000000E+00 0.  1.
<scales pt_clust_1="13000.00000" pt_clust_2="13000.00000" pt_clust_3="44.36677" pt_clust_4="40.04963"></scales>
<clustering>
<clus scale="   40.050">  1  6  2 -1</clus>
<clus scale="   44.367">  2  5  1 -1</clus>
<clus scale="  647.792">  2  4  1 -1</clus>
<clus scale="  647.792">  2  3  1 -1</clus>
</clustering>
</event>
<event>
 4   0  0.3464723E-02  0.3633869E+03  0.7816531E-02  0.1057251E+00
       21   -1    0    0  501  502  0.00000000000E+00  0.00000000000E+00  0.14459080945E+03  0.14459080945E+03  0.00000000000E+00 0.  1.
       21   -1    0    0  502  503  0.00000000000E+00  0.00000000000E+00 -0.97549312194E+03  0.97549312194E+03  0.00000000000E+00 0.  1.
  1000006    1    1    2  501    0 -0.87488635677E+02  0.43540547312E+02 -0.27400400365E+03  0.45511343053E+03  0.35000000000E+03 0.  0.
 -1000006    1    1    2    0  503  0.87488635677E+02 -0.43540547312E+02 -0.55689830884E+03  0.66497050086E+03  0.35000000000E+03 0.  0.
<scales pt_clust_1="13000.00000" pt_clust_2="13000.00000"></scales>
<clustering>
<clus scale="  363.387">  1  3  2 -1</clus>
<clus scale="  363.387">  1  3  2 -1</clus>
</clustering>
</event>
<event>
 6   2  0.3464723E-02  0.3980119E+03  0.7816531E-02  0.1044470E+00
       21   -1    0    0  501  502  0.00000000000E+00  0.00000000000E+00  0.83802073564E+03  0.83802073564E+03  0.00000000000E+00 0. -1.
       21   -1    0    0  505  503  0.00000000000E+00  0.00000000000E+00 -0.10634749137E+04  0.10634749137E+04  0.00000000000E+00 0. -1.
  1000006    1    1    2  501    0 -0.18894304075E+03 -0.75978683710E+02  0.60571688956E+03  0.72860495697E+03  0.35000000000E+03 0.  0.
 -1000006    1    1    2    0  504  0.11125951380E+03  0.43262530511E+02 -0.19265755484E+03  0.41697393131E+03  0.35000000000E+03 0.  0.
       21    1    1    2  504  503  0.37880193691E+02 -0.12373424632E+03 -0.56302573128E+03  0.57770498255E+03  0.00000000000E+00 0. -1.
       21    1    1    2  505  502  0.39803333259E+02  0.15645039952E+03 -0.75487781531E+02  0.17821177853E+03  0.00000000000E+00 0.  1.
<scales pt_clust_1="13000.00000" pt_clust_2="13000.00000" pt_clust_3="129.40275" pt_clust_4="134.10905"></scales>
<clustering>
<clus scale="  129.403">  2  5  1 -1</clus>
<clus scale="  134.109">  2  6  1 -1</clus>
<clus scale="  398.012">  1  3  2 -1</clus>
<clus scale="  398.012">  1  3  2 -1</clus>
</clustering>
</event>
<event>
 6   2  0.3464723E-02  0.3593830E+03  0.7816531E-02  0.1058828E+00
        2   -1    0    0  501    0  0.00000000000E+00  0.00000000000E+00  0.15968566111E+04  0.15968566111E+04  0.00000000000E+00 0. -1.
       21   -1    0    0  504  503  0.00000000000E+00  0.00000000000E+00 -0.68812769145E+03  0.68812769145E+03  0.00000000000E+00 0. -1.
  1000006    1    1    2  501    0  0.33991850379E+02  0.87193325102E+02 -0.14766761602E+02  0.36259644108E+03  0.35000000000E+03 0.  0.
 -1000006    1    1    2    0  503 -0.17208821662E+02 -0.74174722590E+02 -0.36486634014E+03  0.51129783804E+03  0.35000000000E+03 0.  0.
       21    1    1    2  504  502  0.38736296057E+02 -0.78894131684E+01 -0.54358149949E+02  0.67212736429E+02  0.00000000000E+00 0.  1.
        2    1    1    2  502    0 -0.55519324774E+02 -0.51291893437E+01  0.13427201713E+04  0.13438772870E+04  0.00000000000E+00 0. -1.
<scales pt_clust_1="13000.00000" pt_clust_2="13000.00000" pt_clust_3="39.53155" pt_clust_4="55.72085"></scales>
<clustering>
<clus scale="   39.532">  2  5  1 -1</clus>
<clus scale="   55.721">  1  6  2 -1</clus>
<clus scale="  359.383">  2  4  1 -1</clus>
<clus scale="  359.383">  2  3  1 -1</clus>
</clustering>
</event>
<event>
 4   0  0.3464723E-02  0.3502348E+03  0.7816531E-02  0.1062519E+00
       21   -1    0    0  503  502  0.00000000000E+00  0.00000000000E+00  0.98477244436E+03  0.98477244436E+03  0.00000000000E+00 0.  1.
       21   -1    0    0  501  503  0.00000000000E+00  0.00000000000E+00 -0.12471397023E+03  0.12471397023E+03  0.00000000000E+00 0.  1.
  1000006    1    1    2  501    0 -0.12820244957E+02 -0.23627427046E+00  0.41061202630E+03  0.53969125493E+03  0.35000000000E+03 0.  0.
 -1000006    1    1    2    0  502  0.12820244957E+02  0.23627427046E+00  0.44944644783E+03  0.56979515966E+03  0.35000000000E+03 0.  0.
<scales pt_clust_1="13000.00000" pt_clust_2="13000.00000"></scales>
<clustering>
<clus scale="  350.235">  2  3  1 -1</clus>
<clus scale="  350.235">  1  3  2 -1</clus>
</clustering>
</event>
<event>
 5   1  0.3464723E-02  0.4022303E+03  0.7816531E-02  0.1043010E+00
       21   -1    0    0  503  502  0.00000000000E+00  0.00000000000E+00  0.63497326660E+03  0.63497326660E+03  0.00000000000E+00 0.  1.
       21   -1    0    0  504  503  0.00000000000E+00  0.00000000000E+00 -0.61118710839E+03  0.61118710839E+03  0.00000000000E+00 0.  1.
  1000006    1    1    2  501    0 -0.47818433163E+02 -0.14761460167E+03 -0.24183875542E+03  0.45283844448E+03  0.35000000000E+03 0.  0.
 -1000006    1    1    2    0  502 -0.51417385116E+01  0.20979989913E+03  0.44039385229E+03  0.60040751185E+03  0.35000000000E+03 0.  0.
       21    1    1    2  504  501  0.52960171674E+02 -0.62185297454E+02 -0.17476893866E+03  0.19291441865E+03  0.00000000000E+00 0.  1.
<scales pt_clust_1="13000.00000" pt_clust_2="13000.00000" pt_clust_3="81.68103"></scales>
<clustering>
<clus scale="   81.681">  2  5  1 -1</clus>
<clus scale="  402.230">  1  4  2 -1</clus>
<clus scale="  402.230">  1  3  2 -1</clus>
</clustering>
</event>
<event>
 4   0  0.3464723E-02  0.3858198E+03  0.7816531E-02  0.1048803E+00
       21   -1    0    0  501  502  0.00000000000E+00  0.00000000000E+00  0.37364323787E+03  0.37364323787E+03  0.00000000000E+00 0.  1.
       21   -1    0    0  502  503  0.00000000000E+00  0.00000000000E+00 -0.97033172941E+03  0.97033172941E+03  0.00000000000E+00 0.  1.
  1000006    1    1    2  501    0  0.10560045514E+03 -0.12331041121E+03  0.21756790501E+03  0.44293645924E+03  0.35000000000E+03 0.  0.
 -1000006    1    1    2    0  503 -0.10560045514E+03  0.12331041121E+03 -0.81425639654E+03  0.90103850803E+03  0.35000000000E+03 0.  0.
<scales pt_clust_1="13000.00000" pt_clust_2="13000.00000"></scales>
<clustering>
<clus scale="  385.820">  1  3  2 -1</clus>
<clus scale="  385.820">  1  3  2 -1</clus>
</clustering>
</event>
<event>
 5   1  0.3464723E-02  0.3762991E+03  0.7816531E-02  0.1052310E+00
       21   -1    0    0  504  502  0.00000000000E+00  0.00000000000E+00  0.67984539308E+03  0.67984539308E+03  0.00000000000E+00 0.  1.
       21   -1    0    0  501  503  0.00000000000E+00  0.00000000000E+00 -0.53784985924E+03  0.53784985924E+03  0.00000000000E+00 0.  1.
  1000006    1    1    2  501    0 -0.11373427030E+03 -0.53479992409E+00  0.17744070191E+03  0.40855963206E+03  0.35000000000E+03 0.  0.
 -1000006    1    1    2    0  502  0.15506163599E+03 -0.43037459342E+02  0.28748410023E+03  0.48066978452E+03  0.35000000000E+03 0.  0.
       21    1    1    2  504  503 -0.41327365693E+02  0.43572259266E+02 -0.32292926829E+03  0.32846583575E+03  0.00000000000E+00 0.  1.
<scales pt_clust_1="13000.00000" pt_clust_2="13000.00000" pt_clust_3="60.05408"></scales>
<clustering>
<clus scale="   60.054">  2  5  1 -1</clus>
<clus scale="  376.299">  2  3  1 -1</clus>
<clus scale="  376.299">  1  3  2 -1</clus>
</clustering>
</event>
<event>
 6   2  0.3464723E-02  0.3535933E+03  0.7816531E-02  0.1061150E+00
       21   -1    0    0  505  502  0.00000000000E+00  0.00000000000E+00  0.17336319958E+04  0.17336319958E+04  0.00000000000E+00 0.  1.
       21   -1    0    0  504  503  0.00000000000E+00  0.00000000000E+00 -0.14941641436E+04  0.14941641436E+04  0.00000000000E+00 0.  1.
  1000006    1    1    2  501    0  0.13218290593E+03  0.64741776348E+02 -0.55676358017E+03  0.67390615254E+03  0.35000000000E+03 0.  0.
 -1000006    1    1    2    0  503  0.16638507351E+03 -0.80021522856E+01 -0.81247929814E+03  0.90020588591E+03  0.35000000000E+03 0.  0.
       21    1    1    2  504  502  0.35432445425E+02 -0.15309682003E+02  0.29640891988E+03  0.29891151255E+03  0.00000000000E+00 0.  1.
       21    1    1    2  505  501 -0.33400042486E+03 -0.41429942059E+02  0.13123018106E+04  0.13547725883E+04  0.00000000000E+00 0.  1.
<scales pt_clust_1="13000.00000" pt_clust_2="13000.00000" pt_clust_3="38.59850" pt_clust_4="306.19466"></scales>
<clustering>
<clus scale="   38.599">  1  5  2 -1</clus>
<clus scale="  306.195">  1  6  2 -1</clus>
<clus scale="  353.593">  2  4  1 -1</clus>
<clus scale="  353.593">  1  3  2 -1</clus>
</clustering>
</event>
<event>
 6   2  0.3464723E-02  0.1308129E+04  0.7816531E-02  0.9358540E-01
       21   -1    0    0  501  502  0.00000000000E+00  0.00000000000E+00  0.32740895516E+04  0.32740895516E+04  0.00000000000E+00 0.  1.
       21   -1    0    0  504  503  0.00000000000E+00  0.00000000000E+00 -0.14378677290E+04  0.14378677290E+04  0.00000000000E+00 0.  1.
  1000006    1    1    2  501    0 -0.73328511224E+03  0.10290295739E+04 -0.61005331037E+03  0.14461237711E+04  0.35000000000E+03 0.  0.
 -1000006    1    1    2    0  503  0.10925689237E+03  0.66518856160E+02 -0.12423641426E+03  0.39280594876E+03  0.35000000000E+03 0.  0.
       21    1    1    2  504  505  0.36373443704E+03 -0.41249718344E+03  0.10185708989E+04  0.11575592180E+04  0.00000000000E+00 0.  1.
       21    1    1    2  505  502  0.26029378283E+03 -0.68305124665E+03  0.15519406483E+04  0.17154683427E+04  0.00000000000E+00 0.  1.
<scales pt_clust_1="13000.00000" pt_clust_2="13000.00000" pt_clust_3="207.30598" pt_clust_4="1282.89614"></scales>
<clustering>
<clus scale="  207.306">  5  6 -1 -1</clus>
<clus scale="  372.642">  2  4  1 -1</clus>
<clus scale=" 1282.896">  1  5  2 -1</clus>
<clus scale=" 1308.129">  1  3  2 -1</clus>
</clustering>
</event>
<event>
 6   2  0.3464723E-02  0.5013179E+03  0.7816531E-02  0.1013435E+00
       21   -1    0    0  505  502  0.00000000000E+00  0.00000000000E+00  0.11033201877E+04  0.11033201877E+04  0.00000000000E+00 0. -1.
       21   -1    0    0  504  503  0.00000000000E+00  0.00000000000E+00 -0.39971425700E+03  0.39971425700E+03  0.00000000000E+00 0. -1.
  1000006    1    1    2  501    0 -0.24048344988E+02 -0.26505863711E+03  0.21933544871E+03  0.49136793044E+03  0.35000000000E+03 0.  0.
 -1000006    1    1    2    0  502 -0.69946590129E+02  0.44126987822E+03  0.53904232431E+03  0.78273766889E+03  0.35000000000E+03 0.  0.
       21    1    1    2  504  501  0.62866235414E+02 -0.17669450806E+03 -0.31760773627E+02  0.19021529769E+03  0.00000000000E+00 0. -1.
       21    1    1    2  505  503  0.31128699702E+02  0.48326693915E+00 -0.23011068689E+02  0.38713547684E+02  0.00000000000E+00 0. -1.
<scales pt_clust_1="13000.00000" pt_clust_2="13000.00000" pt_clust_3="190.75422" pt_clust_4="31.13245"></scales>
<clustering>
<clus scale="   31.132">  2  6  1 -1</clus>
<clus scale="  190.754">  2  5  1 -1</clus>
<clus scale="  501.318">  1  4  2 -1</clus>
<clus scale="  501.318">  1  3  2 -1</clus>
</clustering>
</event>
<event>
 5   1  0.3464723E-02  0.3826955E+03  0.7816531E-02  0.1049942E+00
       21   -1    0    0  504  502  0.00000000000E+00  0.00000000000E+00  0.12675261141E+03  0.12675261141E+03  0.00000000000E+00 0. -1.
       21   -1    0    0  502  503  0.00000000000E+00  0.00000000000E+00 -0.18223300981E+04  0.18223300981E+04  0.00000000000E+00 0. -1.
  1000006    1    1    2  501    0  0.18993074711E+03 -0.52681146948E+02 -0.82836764669E+03  0.92062041582E+03  0.35000000000E+03 0.  0.
 -1000006    1    1    2    0  503 -0.12404077653E+03 -0.41145491946E+02 -0.82611771857E+03  0.90666948261E+03  0.35000000000E+03 0.  0.
       21    1    1    2  504  501 -0.65889970571E+02  0.93826638894E+02 -0.41092121417E+02  0.12179281108E+03  0.00000000000E+00 0. -1.
<scales pt_clust_1="13000.00000" pt_clust_2="13000.00000" pt_clust_3="114.65133"></scales>
<clustering>
<clus scale="  114.651">  1  5  2 -1</clus>
<clus scale="  382.695">  1  3  2 -1</clus>
<clus scale="  382.695">  1  3  2 -1</clus>
</clustering>
</event>
<event>
 6   2  0.3464723E-02  0.5392421E+03  0.7816531E-02  0.1004015E+00
       21   -1    0    0  501  502  0.00000000000E+00  0.00000000000E+00  0.30573319823E+03  0.30573319823E+03  0.00000000000E+00 0. -1.
       21   -1    0    0  505  503  0.00000000000E+00  0.00000000000E+00 -0.17043489241E+04  0.17043489241E+04  0.00000000000E+00 0.  1.
  1000006    1    1    2  501    0 -0.32994523582E+03 -0.29565599321E+03 -0.11337874783E+03  0.57587417499E+03  0.35000000000E+03 0.  0.
 -1000006    1    1    2    0  504  0.25627678790E+03  0.18792271596E+03 -0.92686064847E+03  0.10404630704E+04  0.35000000000E+03 0.  0.
       21    1    1    2  504  503  0.56031077921E+02  0.18086845051E+02 -0.22138795932E+03  0.22908348738E+03  0.00000000000E+00 0.  1.
       21    1    1    2  505  502  0.17637370000E+02  0.89646432200E+02 -0.13698837026E+03  0.16466138956E+03  0.00000000000E+00 0. -1.
<scales pt_clust_1="13000.00000" pt_clust_2="13000.00000" pt_clust_3="58.87797" pt_clust_4="94.42361"></scales>
<clustering>
<clus scale="   58.878">  2  5  1 -1</clus>
<clus scale="   94.424">  2  6  1 -1</clus>
<clus scale="  539.242">  2  4  1 -1</clus>
<clus scale="  539.242">  1  3  2 -1</clus>
</clustering>
</event>
<event>
 4   0  0.3464723E-02  0.3536544E+03  0.7816531E-02  0.1061125E+00
       21   -1    0    0  503  502  0.00000000000E+00  0.00000000000E+00  0.98739100686E+03  0.98739100686E+03  0.00000000000E+00 0.  1.
       21   -1    0    0  501  503  0.00000000000E+00  0.00000000000E+00 -0.12682601980E+03  0.12682601980E+03  0.00000000000E+00 0.  1.
  1000006    1    1    2  501    0 -0.22163202526E+02  0.45609762617E+02  0.41065633755E+03  0.54195026115E+03  0.35000000000E+03 0.  0.
 -1000006    1    1    2    0  502  0.22163202526E+02 -0.45609762617E+02  0.44990864952E+03  0.57226676551E+03  0.35000000000E+03 0.  0.
<scales pt_clust_1="13000.00000" pt_clust_2="13000.00000"></scales>
<clustering>
<clus scale="  353.654">  2  3  1 -1</clus>
<clus scale="  353.654">  1  3  2 -1</clus>
</clustering>
</event>
<event>
 5   1  0.3464723E-02  0.3554640E+03  0.7816531E-02  0.1060394E+00
       21   -1    0    0  504  502  0.00000000000E+00  0.00000000000E+00  0.14315935149E+04  0.14315935149E+04  0.00000000000E+00 0. -1.
       21   -1    0    0  501  503  0.00000000000E+00  0.00000000000E+00 -0.10884155130E+03  0.10884155130E+03  0.00000000000E+00 0. -1.
  1000006    1    1    2  501    0 -0.90458326727E+01 -0.77929628224E+02  0.44020387143E+03  0.56783298818E+03  0.35000000000E+03 0.  0.
 -1000006    1    1    2    0  502  0.32803015629E+02  0.45561053020E+02  0.84987644456E+03  0.92083756353E+03  0.35000000000E+03 0.  0.
       21    1    1    2  504  503 -0.23757182957E+02  0.32368575204E+02  0.32671647620E+02  0.51764514496E+02  0.00000000000E+00 0. -1.
<scales pt_clust_1="13000.00000" pt_clust_2="13000.00000" pt_clust_3="40.15132"></scales>
<clustering>
<clus scale="   40.151">  2  5  1 -1</clus>
<clus scale="  355.464">  2  3  1 -1</clus>
<clus scale="  355.464">  1  3  2 -1</clus>
</clustering>
</event>
<event>
 5   1  0.3464723E-02  0.4994474E+03  0.7816531E-02  0.1013923E+00
       21   -1    0    0  501  503  0.00000000000E+00  0.00000000000E+00  0.13267627804E+03  0.13267627804E+03  0.00000000000E+00 0.  1.
        2   -1    0    0  503    0  0.00000000000E+00  0.00000000000E+00 -0.25683732297E+04  0.25683732297E+04  0.00000000000E+00 0.  1.
  1000006    1    1    2  501    0  0.21009121457E+03  0.31360526177E+03 -0.66894184502E+03  0.84407924430E+03  0.35000000000E+03 0.  0.
 -1000006    1    1    2    0  502 -0.11479590717E+03 -0.29947199145E+03 -0.14327191908E+04  0.15093196659E+04  0.35000000000E+03 0.  0.
        2    1    1    2  502    0 -0.95295307406E+02 -0.14133270323E+02 -0.33403591579E+03  0.34765059756E+03  0.00000000000E+00 0.  1.
<scales pt_clust_1="13000.00000" pt_clust_2="13000.00000" pt_clust_3="96.33766"></scales>
<clustering>
<clus scale="   96.338">  2  5  1 -1</clus>
<clus scale="  499.447">  1  3  2 -1</clus>
<clus scale="  499.447">  1  3  2 -1</clus>
</clustering>
</event>
<event>
 5   1  0.3464723E-02  0.4136522E+03  0.7816531E-02  0.1039152E+00
        2   -1    0    0  503    0  0.00000000000E+00  0.00000000000E+00  0.16600772147E+04  0.16600772147E+04  0.00000000000E+00 0. -1.
       -2   -1    0    0    0  501  0.00000000000E+00  0.00000000000E+00 -0.13292460365E+03  0.13292460365E+03  0.00000000000E+00 0.  1.
  1000006    1    1    2  502    0  0.55165376679E+02  0.19261368624E+03  0.78472548266E+03  0.88229095771E+03  0.35000000000E+03 0.  0.
 -1000006    1    1    2    0  501 -0.90011657247E+02 -0.21596585956E+03  0.45365229187E+03  0.61890528585E+03  0.35000000000E+03 0.  0.
       21    1    1    2  503  502  0.34846280568E+02  0.23352173317E+02  0.28877483647E+03  0.29180557474E+03  0.00000000000E+00 0. -1.
<scales pt_clust_1="13000.00000" pt_clust_2="13000.00000" pt_clust_3="41.94743"></scales>
<clustering>
<clus scale="   41.947">  1  5  2 -1</clus>
<clus scale="  592.242">  3  4 -1 -1</clus>
<clus scale="  413.652">  1  3  2 -1</clus>
</clustering>
</event>
<event>
 5   1  0.3464723E-02  0.3914991E+03  0.7816531E-02  0.1046764E+00
       21   -1    0    0  503  502  0.00000000000E+00  0.00000000000E+00  0.34875637937E+03  0.34875637937E+03  0.00000000000E+00 0.  1.
       21   -1    0    0  504  503  0.00000000000E+00  0.00000000000E+00 -0.17072681887E+04  0.17072681887E+04  0.00000000000E+00 0.  1.
  1000006    1    1    2  501    0  0.14392535059E+03 -0.13159432530E+03 -0.12239782124E+04  0.12878875096E+04  0.35000000000E+03 0.  0.
 -1000006    1    1    2    0  502 -0.17587711197E+03 -0.47440150512E+02  0.15689658996E+03  0.42461731752E+03  0.35000000000E+03 0.  0.
       21    1    1    2  504  501  0.31951761378E+02  0.17903447581E+03 -0.29143018692E+03  0.34351974096E+03  0.00000000000E+00 0.  1.
<scales pt_clust_1="13000.00000" pt_clust_2="13000.00000" pt_clust_3="181.86330"></scales>
<clustering>
<clus scale="  181.863">  2  5  1 -1</clus>
<clus scale="  391.499">  2  3  1 -1</clus>
<clus scale="  391.499">  1  3  2 -1</clus>
</clustering>
</event>
<event>
 4   0  0.3464723E-02  0.4680859E+03  0.7816531E-02  0.1022462E+00
       21   -1    0    0  503  502  0.00000000000E+00  0.00000000000E+00  0.13283087529E+04  0.13283087529E+04  0.00000000000E+00 0.  1.
       21   -1    0    0  501  503  0.00000000000E+00  0.00000000000E+00 -0.16636614905E+03  0.16636614905E+03  0.00000000000E+00 0.  1.
  1000006    1    1    2  501    0  0.23776731136E+03 -0.20017764397E+03  0.51201792840E+03  0.69373391333E+03  0.35000000000E+03 0.  0.
 -1000006    1    1    2    0  502 -0.23776731136E+03  0.20017764397E+03  0.64992467549E+03  0.80094098866E+03  0.35000000000E+03 0.  0.
<scales pt_clust_1="13000.00000" pt_clust_2="13000.00000"></scales>
<clustering>
<clus scale="  468.086">  1  4  2 -1</clus>
<clus scale="  468.086">  1  3  2 -1</clus>
</clustering>
</event>
<event>
 5   1  0.3464723E-02  0.4187679E+03  0.7816531E-02  0.1037468E+00
       21   -1    0    0  501  502  0.00000000000E+00  0.00000000000E+00  0.17581779629E+03  0.17581779629E+03  0.00000000000E+00 0.  1.
       21   -1    0    0  504  503  0.00000000000E+00  0.00000000000E+00 -0.12921877588E+04  0.12921877588E+04  0.00000000000E+00 0.  1.
  1000006    1    1    2  501    0  0.18950437430E+03  0.13447394693E+03 -0.30581450578E+03  0.51963223748E+03  0.35000000000E+03 0.  0.
 -1000006    1    1    2    0  503 -0.20595524590E+03 -0.10171095154E+03 -0.80990477217E+03  0.91170632386E+03  0.35000000000E+03 0.  0.
       21    1    1    2  504  502  0.16450871594E+02 -0.32762995389E+02 -0.65068459697E+00  0.36666993789E+02  0.00000000000E+00 0.  1.
<scales pt_clust_1="13000.00000" pt_clust_2="13000.00000" pt_clust_3="36.66122"></scales>
<clustering>
<clus scale="   36.661">  1  5  2 -1</clus>
<clus scale="  418.768">  1  3  2 -1</clus>
<clus scale="  418.768">  1  3  2 -1</clus>
</clustering>
</event>
<event>
 6   2  0.3464723E-02  0.4322047E+03  0.7816531E-02  0.1033166E+00
        2   -1    0    0  503    0  0.00000000000E+00  0.00000000000E+00  0.10567505103E+04  0.10567505103E+04  0.00000000000E+00 0.  1.
       21   -1    0    0  504  503  0.00000000000E+00  0.00000000000E+00 -0.15091436782E+04  0.15091436782E+04  0.00000000000E+00 0.  1.
  1000006    1    1    2  501    0  0.17236628944E+03  0.25019931400E+03 -0.35807572585E+02  0.46485698523E+03  0.35000000000E+03 0.  0.
 -1000006    1    1    2    0  502 -0.58219617433E+02 -0.20446517417E+03  0.35275184423E+02  0.41102295549E+03  0.35000000000E+03 0.  0.
       21    1    1    2  504  501 -0.26693665647E+02 -0.37353143045E+02 -0.10673246954E+04  0.10683116654E+04  0.00000000000E+00 0.  1.
        2    1    1    2  502    0 -0.87453006363E+02 -0.83809967818E+01  0.61546391568E+03  0.62170258237E+03  0.00000000000E+00 0.  1.
<scales pt_clust_1="13000.00000" pt_clust_2="13000.00000" pt_clust_3="45.91088" pt_clust_4="88.06702"></scales>
<clustering>
<clus scale="   45.911">  2  5  1 -1</clus>
<clus scale="   88.067">  1  6  2 -1</clus>
<clus scale="  432.205">  2  3  1 -1</clus>
<clus scale="  432.205">  2  3  1 -1</clus>
</clustering>
</event>
<event>
 6   2  0.3464723E-02  0.3833991E+03  0.7816531E-02  0.1049685E+00
       21   -1    0    0  504  502  0.00000000000E+00  0.00000000000E+00  0.69764906619E+03  0.69764906619E+03  0.00000000000E+00 0.  1.
       21   -1    0    0  502  503  0.00000000000E+00  0.00000000000E+00 -0.71060597680E+03  0.71060597680E+03  0.00000000000E+00 0.  1.
  1000006    1    1    2  501    0 -0.47113064191E+02 -0.14178210467E+03  0.24602893606E+03  0.45315785704E+03  0.35000000000E+03 0.  0.
 -1000006    1    1    2    0  505  0.18142033452E+02  0.17348843068E+03  0.36178155470E+02  0.39272920428E+03  0.35000000000E+03 0.  0.
       21    1    1    2  504  501  0.12234104485E+03 -0.90476905718E+01  0.98389018588E+02  0.15725644959E+03  0.00000000000E+00 0.  1.
       21    1    1    2  505  503 -0.93370014111E+02 -0.22658635447E+02 -0.39355302073E+03  0.40511153208E+03  0.00000000000E+00 0.  1.
<scales pt_clust_1="13000.00000" pt_clust_2="13000.00000" pt_clust_3="114.06232" pt_clust_4="96.08004"></scales>
<clustering>
<clus scale="   96.080">  2  6  1 -1</clus>
<clus scale="  114.062">  1  5  2 -1</clus>
<clus scale="  383.399">  2  4  1 -1</clus>
<clus scale="  383.399">  1  3  2 -1</clus>
</clustering>
</event>
<event>
 4   0  0.3464723E-02  0.3826162E+03  0.7816531E-02  0.1049971E+00
       21   -1    0    0  503  502  0.00000000000E+00  0.00000000000E+00  0.15090537299E+03  0.15090537299E+03  0.00000000000E+00 0. -1.
       21   -1    0    0  501  503  0.00000000000E+00  0.00000000000E+00 -0.11850776786E+04  0.11850776786E+04  0.00000000000E+00 0. -1.
  1000006    1    1    2  501    0 -0.87104790593E+02  0.12770249676E+03 -0.80158578670E+03  0.88822009979E+03  0.35000000000E+03 0.  0.
 -1000006    1    1    2    0  502  0.87104790593E+02 -0.12770249676E+03 -0.23258651889E+03  0.44776295179E+03  0.35000000000E+03 0.  0.
<scales pt_clust_1="13000.00000" pt_clust_2="13000.00000"></scales>
<clustering>
<clus scale="  382.616">  2  3  1 -1</clus>
<clus scale="  382.616">  1  3  2 -1</clus>
</clustering>
</event>
<event>
 4   0  0.3464723E-02  0.4073322E+03  0.7816531E-02  0.1041270E+00
       21   -1    0    0  501  502  0.00000000000E+00  0.00000000000E+00  0.14489770965E+03  0.14489770965E+03  0.00000000000E+00 0.  1.
       21   -1    0    0  502  503  0.00000000000E+00  0.00000000000E+00 -0.14814765633E+04  0.14814765633E+04  0.00000000000E+00 0.  1.
  1000006    1    1    2  501    0  0.19014218262E+03  0.85237499993E+02 -0.28079199314E+03  0.49473591383E+03  0.35000000000E+03 0.  0.
 -1000006    1    1    2    0  503 -0.19014218262E+03 -0.85237499993E+02 -0.10557868605E+04  0.11316383591E+04  0.35000000000E+03 0.  0.
<scales pt_clust_1="13000.00000" pt_clust_2="13000.00000"></scales>
<clustering>
<clus scale="  407.332">  1  3  2 -1</clus>
<clus scale="  407.332">  1  3  2 -1</clus>
</clustering>
</event>
<event>
 6   2  0.3464723E-02  0.5503293E+03  0.7816531E-02  0.1001418E+00
       21   -1    0    0  504  502  0.00000000000E+00  0.00000000000E+00  0.39039809954E+03  0.39039809954E+03  0.00000000000E+00 0.  1.
       21   -1    0    0  505  503  0.00000000000E+00  0.00000000000E+00 -0.22253767516E+04  0.22253767516E+04  0.00000000000E+00 0.  1.
  1000006    1    1    2  501    0  0.46954391846E+03  0.21080194943E+03 -0.62233374041E+03  0.88017511763E+03  0.35000000000E+03 0.  0.
 -1000006    1    1    2    0  502 -0.33237693979E+03 -0.43188100611E+02 -0.26259578344E+03  0.55117709279E+03  0.35000000000E+03 0.  0.
       21    1    1    2  504  503 -0.17033537085E+03 -0.18600063221E+02  0.45460424877E+02  0.17727591812E+03  0.00000000000E+00 0. -1.
       21    1    1    2  505  501  0.33168392178E+02 -0.14901378560E+03 -0.99550955314E+03  0.10071467226E+04  0.00000000000E+00 0. -1.
<scales pt_clust_1="13000.00000" pt_clust_2="13000.00000" pt_clust_3="170.63919" pt_clust_4="152.66057"></scales>
<clustering>
<clus scale="  152.661">  2  6  1 -1</clus>
<clus scale="  170.639">  1  5  2 -1</clus>
<clus scale="  550.329">  2  3  1 -1</clus>
<clus scale="  550.329">  1  3  2 -1</clus>
</clustering>
</event>
<event>
 5   1  0.3464723E-02  0.1327203E+04  0.7816531E-02  0.9008267E-01
       21   -1    0    0  501  502  0.00000000000E+00  0.00000000000E+00  0.10702769722E+04  0.10702769722E+04  0.00000000000E+00 0.  1.
       21   -1    0    0  502  503  0.00000000000E+00  0.00000000000E+00 -0.21869811415E+04  0.21869811415E+04  0.00000000000E+00 0. -1.
  1000006    1    1    2  501    0 -0.11211923779E+04  0.62930998792E+03  0.23063696966E+03  0.13523301450E+04  0.35000000000E+03 0.  0.
 -1000006    1    1    2    0  504  0.11153508488E+04 -0.59634089827E+03 -0.13236228477E+04  0.18638957658E+04  0.35000000000E+03 0.  0.
       21    1    1    2  504  503  0.58415291269E+01 -0.32969089658E+02 -0.23718291317E+02  0.41032202944E+02  0.00000000000E+00 0. -1.
<scales pt_clust_1="13000.00000" pt_clust_2="13000.00000" pt_clust_3="33.48260"></scales>
<clustering>
<clus scale="   33.483">  2  5  1 -1</clus>
<clus scale=" 1327.203">  1  3  2 -1</clus>
<clus scale=" 1327.203">  1  3  2 -1</clus>
</clustering>
</event>
<event>
 5   1  0.3464723E-02  0.5586130E+03  0.7816531E-02  0.9995198E-01
       21   -1    0    0  504  502  0.00000000000E+00  0.00000000000E+00  0.85054206370E+03  0.85054206370E+03  0.00000000000E+00 0. -1.
       21   -1    0    0  501  503  0.00000000000E+00  0.00000000000E+00 -0.42673549728E+03  0.42673549728E+03  0.00000000000E+00 0.  1.
  1000006    1    1    2  501    0 -0.37093983079E+03  0.15038493930E+03  0.14053333470E+03  0.54996509543E+03  0.35000000000E+03 0.  0.
 -1000006    1    1    2    0  502  0.42835879124E+03 -0.18244698444E+03  0.30570878963E+03  0.65782674028E+03  0.35000000000E+03 0.  0.
       21    1    1    2  504  503 -0.57418960456E+02  0.32062045138E+02 -0.22435557904E+02  0.69485725273E+02  0.00000000000E+00 0. -1.
<scales pt_clust_1="13000.00000" pt_clust_2="13000.00000" pt_clust_3="65.76406"></scales>
<clustering>
<clus scale="   65.764">  2  5  1 -1</clus>
<clus scale="  558.613">  1  4  2 -1</clus>
<clus scale="  558.613">  1  3  2 -1</clus>
</clustering>
</event>
<event>
 5   1  0.3464723E-02  0.4223961E+03  0.7816531E-02  0.1036289E+00
       21   -1    0    0  504  502  0.00000000000E+00  0.00000000000E+00  0.44845953165E+03  0.44845953165E+03  0.00000000000E+00 0.  1.
       21   -1    0    0  501  503  0.00000000000E+00  0.00000000000E+00 -0.74517613367E+03  0.74517613367E+03  0.00000000000E+00 0.  1.
  1000006    1    1    2  501    0  0.18985092113E+03  0.10083619880E+03 -0.40911452858E+03  0.57972925468E+03  0.35000000000E+03 0.  0.
 -1000006    1    1    2    0  502 -0.31314341988E+03 -0.59148240736E+02  0.90790467591E+02  0.48197533630E+03  0.35000000000E+03 0.  0.
       21    1    1    2  504  503  0.12329249875E+03 -0.41687958061E+02  0.21607458971E+02  0.13193107434E+03  0.00000000000E+00 0.  1.
<scales pt_clust_1="13000.00000" pt_clust_2="13000.00000" pt_clust_3="130.14963"></scales>
<clustering>
<clus scale="  130.150">  1  5  2 -1</clus>
<clus scale="  422.396">  1  4  2 -1</clus>
<clus scale="  422.396">  1  3  2 -1</clus>
</clustering>
</event>
<event>
 6   2  0.3464723E-02  0.7041688E+03  0.7816531E-02  0.9811169E-01
       -1   -1    0    0    0  501  0.00000000000E+00  0.00000000000E+00  0.76948896111E+03  0.76948896111E+03  0.00000000000E+00 0.  1.
       21   -1    0    0  501  503  0.00000000000E+00  0.00000000000E+00 -0.18015583659E+04  0.18015583659E+04  0.00000000000E+00 0. -1.
  1000006    1    1    2  502    0 -0.49400582102E+03  0.79422877432E+02 -0.16522392430E+03  0.63257307074E+03  0.35000000000E+03 0.  0.
 -1000006    1    1    2    0  504 -0.51607038030E+02  0.34474027791E+03 -0.14249082572E+03  0.51411358765E+03  0.35000000000E+03 0.  0.
       21    1    1    2  504  503 -0.63597276934E+02  0.38583602817E+02 -0.65165154998E+03  0.65588341238E+03  0.00000000000E+00 0. -1.
       -1    1    1    2    0  502  0.60921013599E+03 -0.46274675816E+03 -0.72703104824E+02  0.76847725629E+03  0.00000000000E+00 0.  1.
<scales pt_clust_1="13000.00000" pt_clust_2="13000.00000" pt_clust_3="74.38621" pt_clust_4="611.02711"></scales>
<clustering>
<clus scale="   74.386">  2  5  1 -1</clus>
<clus scale="  503.933">  2  4  1 -1</clus>
<clus scale="  611.027">  1  6  2 -1</clus>
<clus scale="  704.169">  2  3  1 -1</clus>
</clustering>
</event>
<event>
 6   2  0.3464723E-02  0.4914264E+03  0.7816531E-02  0.1016041E+00
       21   -1    0    0  504  502  0.00000000000E+00  0.00000000000E+00  0.45244524722E+03  0.45244524722E+03  0.00000000000E+00 0.  1.
       21   -1    0    0  501  503  0.00000000000E+00  0.00000000000E+00 -0.16893799465E+04  0.16893799465E+04  0.00000000000E+00 0.  1.
  1000006    1    1    2  501    0  0.18107216116E+03  0.38297603857E+03 -0.50913385428E+03  0.74911618274E+03  0.35000000000E+03 0.  0.
 -1000006    1    1    2    0  502  0.19853844563E+03 -0.31241469478E+03  0.36621074376E+02  0.51074608074E+03  0.35000000000E+03 0.  0.
       21    1    1    2  504  505 -0.22747749370E+03 -0.78384028777E+02 -0.25648199531E+03  0.35167183570E+03  0.00000000000E+00 0.  1.
       21    1    1    2  505  503 -0.15213311309E+03  0.78226849819E+01 -0.50793992411E+03  0.53029109459E+03  0.00000000000E+00 0.  1.
<scales pt_clust_1="13000.00000" pt_clust_2="13000.00000" pt_clust_3="277.70914" pt_clust_4="152.33410"></scales>
<clustering>
<clus scale="  152.334">  2  6  1 -1</clus>
<clus scale="  277.709">  2  5  1 -1</clus>
<clus scale="  491.426">  2  3  1 -1</clus>
<clus scale="  491.426">  1  3  2 -1</clus>
</clustering>
</event>
<event>
 5   1  0.3464723E-02  0.3742219E+03  0.7816531E-02  0.1053090E+00
       21   -1    0    0  503  502  0.00000000000E+00  0.00000000000E+00  0.55277373389E+03  0.55277373389E+03  0.00000000000E+00 0.  1.
       21   -1    0    0  504  503  0.00000000000E+00  0.00000000000E+00 -0.75851952353E+03  0.75851952353E+03  0.00000000000E+00 0.  1.
  1000006    1    1    2  501    0  0.76286365441E+02 -0.40881850537E+02 -0.51850421936E+03  0.63153587448E+03  0.35000000000E+03 0.  0.
 -1000006    1    1    2    0  502 -0.68780615494E+02  0.12187876931E+03  0.40735348982E+03  0.55499736319E+03  0.35000000000E+03 0.  0.
       21    1    1    2  504  501 -0.75057499467E+01 -0.80996918776E+02 -0.94595060095E+02  0.12476001975E+03  0.00000000000E+00 0.  1.
<scales pt_clust_1="13000.00000" pt_clust_2="13000.00000" pt_clust_3="81.34394"></scales>
<clustering>
<clus scale="   81.344">  2  5  1 -1</clus>
<clus scale="  374.222">  2  3  1 -1</clus>
<clus scale="  374.222">  1  3  2 -1</clus>
</clustering>
</event>
<event>
 5   1  0.3464723E-02  0.3534378E+03  0.7816531E-02  0.1061213E+00
       21   -1    0    0  501  503  0.00000000000E+00  0.00000000000E+00  0.66950642453E+03  0.66950642453E+03  0.00000000000E+00 0. -1.
        3   -1    0    0  503    0  0.00000000000E+00  0.00000000000E+00 -0.46707357571E+03  0.46707357571E+03  0.00000000000E+00 0. -1.
  1000006    1    1    2  501    0  0.19033658858E+02  0.52837196317E+02  0.21404710583E+03  0.41408961953E+03  0.35000000000E+03 0.  0.
 -1000006    1    1    2    0  502  0.82907128867E+02  0.19919265414E+03  0.10855925926E+03  0.42524865461E+03  0.35000000000E+03 0.  0.
        3    1    1    2  502    0 -0.10194078772E+03 -0.25202985045E+03 -0.12017351628E+03  0.29724172610E+03  0.00000000000E+00 0. -1.
<scales pt_clust_1="13000.00000" pt_clust_2="13000.00000" pt_clust_3="271.86572"></scales>
<clustering>
<clus scale="  271.866">  2  5  1 -1</clus>
<clus scale="  353.438">  2  4  1 -1</clus>
<clus scale="  353.438">  1  3  2 -1</clus>
</clustering>
</event>
<event>
 4   0  0.3464723E-02  0.5561880E+03  0.7816531E-02  0.1000072E+00
       21   -1    0    0  501  502  0.00000000000E+00  0.00000000000E+00  0.11068288624E+04  0.11068288624E+04  0.00000000000E+00 0.  1.
       21   -1    0    0  502  503  0.00000000000E+00  0.00000000000E+00 -0.53574366376E+03  0.53574366376E+03  0.00000000000E+00 0.  1.
  1000006    1    1    2  501    0  0.37844995741E+03 -0.20885561715E+03  0.85354875007E+03  0.10187691141E+04  0.35000000000E+03 0.  0.
 -1000006    1    1    2    0  503 -0.37844995741E+03  0.20885561715E+03 -0.28246355140E+03  0.62380341210E+03  0.35000000000E+03 0.  0.
<scales pt_clust_1="13000.00000" pt_clust_2="13000.00000"></scales>
<clustering>
<clus scale="  556.188">  1  3  2 -1</clus>
<clus scale="  556.188">  1  3  2 -1</clus>
</clustering>
</event>
<event>
 5   1  0.3464723E-02  0.3783058E+03  0.7816531E-02  0.1051562E+00
       21   -1    0    0  501  502  0.00000000000E+00  0.00000000000E+00  0.82432908633E+03  0.82432908633E+03  0.00000000000E+00 0. -1.
       21   -1    0    0  504  503  0.00000000000E+00  0.00000000000E+00 -0.50188711093E+03  0.50188711093E+03  0.00000000000E+00 0. -1.
  1000006    1    1    2  501    0 -0.15517757305E+02  0.21044500158E+03  0.35030359491E+03  0.53827549460E+03  0.35000000000E+03 0.  0.
 -1000006    1    1    2    0  503 -0.23393795674E+03  0.41553483353E+02  0.46702842786E+02  0.42559935985E+03  0.35000000000E+03 0.  0.
       21    1    1    2  504  502  0.24945571404E+03 -0.25199848493E+03 -0.74564462301E+02  0.36234134281E+03  0.00000000000E+00 0. -1.
<scales pt_clust_1="13000.00000" pt_clust_2="13000.00000" pt_clust_3="354.58622"></scales>
<clustering>
<clus scale="  354.586">  2  5  1 -1</clus>
<clus scale="  378.306">  1  3  2 -1</clus>
<clus scale="  378.306">  1  3  2 -1</clus>
</clustering>
</event>
<event>
 5   1  0.3464723E-02  0.4649457E+03  0.7816531E-02  0.1023357E+00
        2   -1    0    0  503    0  0.00000000000E+00  0.00000000000E+00  0.12934151098E+04  0.12934151098E+04  0.00000000000E+00 0. -1.
       21   -1    0    0  501  503  0.00000000000E+00  0.00000000000E+00 -0.57395820572E+03  0.57395820572E+03  0.00000000000E+00 0.  1.
  1000006    1    1    2  501    0 -0.25976760698E+03  0.19085695216E+03 -0.15166880360E+03  0.49940866213E+03  0.35000000000E+03 0.  0.
 -1000006    1    1    2    0  502  0.32554495669E+03  0.13119288990E+02  0.75953038726E+01  0.47823563565E+03  0.35000000000E+03 0.  0.
        2    1    1    2  502    0 -0.65777349708E+02 -0.20397624115E+03  0.86353040378E+03  0.88972901770E+03  0.00000000000E+00 0. -1.
<scales pt_clust_1="13000.00000" pt_clust_2="13000.00000" pt_clust_3="214.31978"></scales>
<clustering>
<clus scale="  214.320">  1  5  2 -1</clus>
<clus scale="  464.946">  2  3  1 -1</clus>
<clus scale="  464.946">  2  3  1 -1</clus>
</clustering>
</event>
<event>
 5   1  0.3464723E-02  0.4203371E+03  0.7816531E-02  0.1036957E+00
       -1   -1    0    0    0  501  0.00000000000E+00  0.00000000000E+00  0.65267429219E+03  0.65267429219E+03  0.00000000000E+00 0. -1.
        1   -1    0    0  503    0  0.00000000000E+00  0.00000000000E+00 -0.31185892130E+03  0.31185892130E+03  0.00000000000E+00 0.  1.
  1000006    1    1    2  502    0 -0.77685664848E+02  0.19100930436E+03  0.10809782455E+03  0.42036264885E+03  0.35000000000E+03 0.  0.
 -1000006    1    1    2    0  501  0.11378118754E+03 -0.22825033488E+03  0.23410266515E+03  0.49228897189E+03  0.35000000000E+03 0.  0.
       21    1    1    2  503  502 -0.36095522688E+02  0.37241030522E+02 -0.13851188174E+01  0.51881592753E+02  0.00000000000E+00 0.  1.
<scales pt_clust_1="13000.00000" pt_clust_2="13000.00000" pt_clust_3="51.86310"></scales>
<clustering>
<clus scale="   51.863">  2  5  1 -1</clus>
<clus scale="  587.913">  3  4 -1 -1</clus>
<clus scale="  420.337">  2  3  1 -1</clus>
</clustering>
</event>
<event>
 6   2  0.3464723E-02  0.3630039E+03  0.7816531E-02  0.1057401E+00
       21   -1    0    0  501  503  0.00000000000E+00  0.00000000000E+00  0.12678806414E+04  0.12678806414E+04  0.00000000000E+00 0.  1.
       21   -1    0    0  502  504  0.00000000000E+00  0.00000000000E+00 -0.16969390049E+03  0.16969390049E+03  0.00000000000E+00 0.  1.
  1000006    1    1    2  501    0 -0.37635592362E+02 -0.80877823967E+02  0.50922916755E+03  0.62431723131E+03  0.35000000000E+03 0.  0.
 -1000006    1    1    2    0  504 -0.90816754656E+02  0.89696364982E+02  0.36153123170E+03  0.51913192188E+03  0.35000000000E+03 0.  0.
        1    1    1    2  502    0  0.26077179597E+02  0.57839066043E+02  0.64365574397E+02  0.90378670182E+02  0.00000000000E+00 0.  1.
       -1    1    1    2    0  503  0.10237516742E+03 -0.66657607058E+02  0.16306076722E+03  0.20374671847E+03  0.00000000000E+00 0. -1.
<scales pt_clust_1="13000.00000" pt_clust_2="13000.00000" pt_clust_3="63.44586" pt_clust_4="121.17700"></scales>
<clustering>
<clus scale="   63.446">  2  5  1 -1</clus>
<clus scale="  121.177">  1  6  2 -1</clus>
<clus scale="  406.417">  3  4 -1 -1</clus>
<clus scale="  363.004">  1  3  2 -1</clus>
</clustering>
</event>
<event>
 6   2  0.3464723E-02  0.3639795E+03  0.7816531E-02  0.1057019E+00
       21   -1    0    0  501  502  0.00000000000E+00  0.00000000000E+00  0.16871393851E+04  0.16871393851E+04  0.00000000000E+00 0. -1.
       21   -1    0    0  505  503  0.00000000000E+00  0.00000000000E+00 -0.20042768839E+04  0.20042768839E+04  0.00000000000E+00 0. -1.
  1000006    1    1    2  501    0  0.32187787621E+02 -0.57488641014E+01  0.29705257392E+02  0.35277684934E+03  0.35000000000E+03 0.  0.
 -1000006    1    1    2    0  504 -0.96679064169E+02 -0.25855703804E+02 -0.12921570862E+04  0.13424549506E+04  0.35000000000E+03 0.  0.
       21    1    1    2  504  503  0.25107515723E+00 -0.30927448712E+02 -0.52361217641E+03  0.52452481486E+03  0.00000000000E+00 0. -1.
       21    1    1    2  505  502  0.64240201391E+02  0.62532016617E+02  0.14689265064E+04  0.14716596542E+04  0.00000000000E+00 0. -1.
<scales pt_clust_1="13000.00000" pt_clust_2="13000.00000" pt_clust_3="30.92847" pt_clust_4="89.62988"></scales>
<clustering>
<clus scale="   30.928">  2  5  1 -1</clus>
<clus scale="   89.630">  1  6  2 -1</clus>
<clus scale="  363.980">  2  4  1 -1</clus>
<clus scale="  363.980">  1  3  2 -1</clus>
</clustering>
</event>
<event>
 6   2  0.3464723E-02  0.4190674E+03  0.7816531E-02  0.1037370E+00
        1   -1    0    0  501    0  0.00000000000E+00  0.00000000000E+00  0.10234427029E+04  0.10234427029E+04  0.00000000000E+00 0.  1.
       21   -1    0    0  502  503  0.00000000000E+00  0.00000000000E+00 -0.46319725820E+03  0.46319725820E+03  0.00000000000E+00 0.  1.
  1000006    1    1    2  501    0 -0.20293474296E+03  0.43951991718E+02  0.55051490005E+03  0.68460276266E+03  0.35000000000E+03 0.  0.
 -1000006    1    1    2    0  504  0.27376206578E+03  0.13469971831E+03  0.87720105327E+02  0.47252989287E+03  0.35000000000E+03 0.  0.
       21    1    1    2  504  503 -0.62715375822E+02 -0.97028814320E+02 -0.17044489050E+03  0.20591082990E+03  0.00000000000E+00 0.  1.
        1    1    1    2  502    0 -0.81119470033E+01 -0.81622895710E+02  0.92455329862E+02  0.12359647571E+03  0.00000000000E+00 0.  1.
<scales pt_clust_1="13000.00000" pt_clust_2="13000.00000" pt_clust_3="116.94819" pt_clust_4="82.02500"></scales>
<clustering>
<clus scale="   82.025">  1  6  2 -1</clus>
<clus scale="  116.948">  2  5  1 -1</clus>
<clus scale="  419.067">  1  3  2 -1</clus>
<clus scale="  419.067">  2  3  1 -1</clus>
</clustering>
</event>
<event>
 4   0  0.3464723E-02  0.4132098E+03  0.7816531E-02  0.1039299E+00
       21   -1    0    0  503  502  0.00000000000E+00  0.00000000000E+00  0.43168351722E+03  0.43168351722E+03  0.00000000000E+00 0. -1.
       21   -1    0    0  501  503  0.00000000000E+00  0.00000000000E+00 -0.39829666887E+03  0.39829666887E+03  0.00000000000E+00 0. -1.
  1000006    1    1    2  501    0  0.20125598529E+03  0.87968026557E+02 -0.17914373298E+02  0.41359795706E+03  0.35000000000E+03 0.  0.
 -1000006    1    1    2    0  502 -0.20125598529E+03 -0.87968026557E+02  0.51301221653E+02  0.41638222903E+03  0.35000000000E+03 0.  0.
<scales pt_clust_1="13000.00000" pt_clust_2="13000.00000"></scales>
<clustering>
<clus scale="  413.210">  2  3  1 -1</clus>
<clus scale="  413.210">  1  3  2 -1</clus>
</clustering>
</event>
<event>
 6   2  0.3464723E-02  0.7749886E+03  0.7816531E-02  0.9596943E-01
       21   -1    0    0  501  502  0.00000000000E+00  0.00000000000E+00  0.10880801558E+04  0.10880801558E+04  0.00000000000E+00 0.  1.
       21   -1    0    0  504  503  0.00000000000E+00  0.00000000000E+00 -0.11034071661E+04  0.11034071661E+04  0.00000000000E+00 0. -1.
  1000006    1    1    2  501    0 -0.11150844802E+03  0.69264821142E+03  0.60052967803E+03  0.98758876713E+03  0.35000000000E+03 0.  0.
 -1000006    1    1    2    0  505  0.17352952679E+03 -0.64469992253E+03 -0.22451901455E+03  0.78654896521E+03  0.35000000000E+03 0.  0.
       21    1    1    2  504  502 -0.85889506221E+02 -0.28016241753E+02 -0.36673123594E+03  0.37769526936E+03  0.00000000000E+00 0. -1.
       21    1    1    2  505  503  0.23868427451E+02 -0.19932047139E+02 -0.24606437765E+02  0.39654320214E+02  0.00000000000E+00 0. -1.
<scales pt_clust_1="13000.00000" pt_clust_2="13000.00000" pt_clust_3="85.10068" pt_clust_4="31.09644"></scales>
<clustering>
<clus scale="   31.096">  2  6  1 -1</clus>
<clus scale="   85.101">  2  5  1 -1</clus>
<clus scale="  774.989">  1  3  2 -1</clus>
<clus scale="  774.989">  1  3  2 -1</clus>
</clustering>
</event>
<event>
 5   1  0.3464723E-02  0.3737909E+03  0.7816531E-02  0.1053253E+00
       21   -1    0    0  503  502  0.00000000000E+00  0.00000000000E+00  0.34287081508E+03  0.34287081508E+03  0.00000000000E+00 0.  1.
       21   -1    0    0  501  503  0.00000000000E+00  0.00000000000E+00 -0.52550364199E+03  0.52550364199E+03  0.00000000000E+00 0.  1.
  1000006    1    1    2  501    0  0.94947174892E+02  0.57309631522E+02 -0.12847024061E+03  0.38897810042E+03  0.35000000000E+03 0.  0.
 -1000006    1    1    2    0  504 -0.16382521320E+03 -0.11753662381E+02 -0.75901734871E+02  0.39400243961E+03  0.35000000000E+03 0.  0.
       21    1    1    2  504  502  0.68878038312E+02 -0.45555969142E+02  0.21739148584E+02  0.85393917039E+02  0.00000000000E+00 0.  1.
<scales pt_clust_1="13000.00000" pt_clust_2="13000.00000" pt_clust_3="82.58045"></scales>
<clustering>
<clus scale="   82.580">  1  5  2 -1</clus>
<clus scale="  373.791">  1  4  2 -1</clus>
<clus scale="  373.791">  1  3  2 -1</clus>
</clustering>
</event>
<event>
 4   0  0.3464723E-02  0.4119741E+03  0.7816531E-02  0.1039711E+00
       21   -1    0    0  501  502  0.00000000000E+00  0.00000000000E+00  0.20091578168E+03  0.20091578168E+03  0.00000000000E+00 0.  1.
       21   -1    0    0  502  503  0.00000000000E+00  0.00000000000E+00 -0.85965297658E+03  0.85965297658E+03  0.00000000000E+00 0.  1.
  1000006    1    1    2  501    0 -0.44567440688E+02  0.21268844440E+03 -0.25953659664E+03  0.48691054225E+03  0.35000000000E+03 0.  0.
 -1000006    1    1    2    0  503  0.44567440688E+02 -0.21268844440E+03 -0.39920059825E+03  0.57365821601E+03  0.35000000000E+03 0.  0.
<scales pt_clust_1="13000.00000" pt_clust_2="13000.00000"></scales>
<clustering>
<clus scale="  411.974">  1  3  2 -1</clus>
<clus scale="  411.974">  1  3  2 -1</clus>
</clustering>
</event>
<event>
 6   2  0.3464723E-02  0.3913666E+03  0.7816531E-02  0.1046811E+00
        1   -1    0    0  501    0  0.00000000000E+00  0.00000000000E+00  0.14924584920E+04  0.14924584920E+04  0.00000000000E+00 0. -1.
       21   -1    0    0  504  503  0.00000000000E+00  0.00000000000E+00 -0.21444600504E+03  0.21444600504E+03  0.00000000000E+00 0. -1.
  1000006    1    1    2  501    0 -0.12544499930E+03  0.12995867239E+03  0.52121938804E+03  0.65329576369E+03  0.35000000000E+03 0.  0.
 -1000006    1    1    2    0  503  0.15715980750E+03 -0.10595406660E+03  0.15073256404E+03  0.42561223571E+03  0.35000000000E+03 0.  0.
       21    1    1    2  504  502 -0.27809314871E+02  0.13759716558E+02  0.12867223705E+02  0.33589481080E+02  0.00000000000E+00 0.  1.
        1    1    1    2  502    0 -0.39054933256E+01 -0.37764322342E+02  0.59319331117E+03  0.59440701656E+03  0.00000000000E+00 0. -1.
<scales pt_clust_1="13000.00000" pt_clust_2="13000.00000" pt_clust_3="31.02721" pt_clust_4="37.93364"></scales>
<clustering>
<clus scale="   31.027">  2  5  1 -1</clus>
<clus scale="   37.934">  1  6  2 -1</clus>
<clus scale="  391.367">  2  4  1 -1</clus>
<clus scale="  391.367">  2  3  1 -1</clus>
</clustering>
</event>
<event>
 5   1  0.3464723E-02  0.8747799E+03  0.7816531E-02  0.9457669E-01
       21   -1    0    0  504  502  0.00000000000E+00  0.00000000000E+00  0.85996240339E+03  0.85996240339E+03  0.00000000000E+00 0. -1.
       21   -1    0    0  501  503  0.00000000000E+00  0.00000000000E+00 -0.93792548954E+03  0.93792548954E+03  0.00000000000E+00 0.  1.
  1000006    1    1    2  501    0  0.78711950933E+03 -0.55430792114E+02 -0.13508606689E+03  0.87371502228E+03  0.35000000000E+03 0.  0.
 -1000006    1    1    2    0  502 -0.81472540994E+03  0.71077344868E+02  0.46772713349E+02  0.89079580672E+03  0.35000000000E+03 0.  0.
       21    1    1    2  504  503  0.27605900611E+02 -0.15646552753E+02  0.10350267397E+02  0.33377063933E+02  0.00000000000E+00 0.  1.
<scales pt_clust_1="13000.00000" pt_clust_2="13000.00000" pt_clust_3="31.73169"></scales>
<clustering>
<clus scale="   31.732">  1  5  2 -1</clus>
<clus scale="  874.780">  2  3  1 -1</clus>
<clus scale="  874.780">  1  3  2 -1</clus>
</clustering>
</event>
<event>
 5   1  0.3464723E-02  0.4046989E+03  0.7816531E-02  0.1042165E+00
       21   -1    0    0  504  502  0.00000000000E+00  0.00000000000E+00  0.41906634879E+03  0.41906634879E+03  0.00000000000E+00 0. -1.
       21   -1    0    0  501  503  0.00000000000E+00  0.00000000000E+00 -0.76165294498E+03  0.76165294498E+03  0.00000000000E+00 0. -1.
  1000006    1    1    2  501    0  0.77084360528E+02 -0.25134710439E+03 -0.98650506998E+02  0.44871960962E+03  0.35000000000E+03 0.  0.
 -1000006    1    1    2    0  502  0.16638301500E+02  0.17293207628E+03  0.68329259016E+02  0.39667521188E+03  0.35000000000E+03 0.  0.
       21    1    1    2  504  503 -0.93722662029E+02  0.78415028112E+02 -0.31226534821E+03  0.33532447227E+03  0.00000000000E+00 0. -1.
<scales pt_clust_1="13000.00000" pt_clust_2="13000.00000" pt_clust_3="122.20006"></scales>
<clustering>
<clus scale="  122.200">  2  5  1 -1</clus>
<clus scale="  404.699">  2  3  1 -1</clus>
<clus scale="  404.699">  1  3  2 -1</clus>
</clustering>
</event>
<event>
 5   1  0.3464723E-02  0.3577237E+03  0.7816531E-02  0.1059489E+00
       21   -1    0    0  504  502  0.00000000000E+00  0.00000000000E+00  0.16654321887E+03  0.16654321887E+03  0.00000000000E+00 0. -1.
       21   -1    0    0  502  503  0.00000000000E+00  0.00000000000E+00 -0.93597853008E+03  0.93597853008E+03  0.00000000000E+00 0. -1.
  1000006    1    1    2  501    0  0.45901294774E+00  0.94714843924E+02 -0.21685697040E+03  0.42249030517E+03  0.35000000000E+03 0.  0.
 -1000006    1    1    2    0  503  0.13752133636E+02 -0.62153360431E+02 -0.52864214766E+03  0.63719281357E+03  0.35000000000E+03 0.  0.
       21    1    1    2  504  501 -0.14211146584E+02 -0.32561483493E+02 -0.23936193155E+02  0.42838630198E+02  0.00000000000E+00 0.  1.
<scales pt_clust_1="13000.00000" pt_clust_2="13000.00000" pt_clust_3="35.52755"></scales>
<clustering>
<clus scale="   35.528">  1  5  2 -1</clus>
<clus scale="  357.724">  1  3  2 -1</clus>
<clus scale="  357.724">  1  3  2 -1</clus>
</clustering>
</event>
<event>
 5   1  0.3464723E-02  0.5163662E+03  0.7816531E-02  0.1009593E+00
       21   -1    0    0  501  503  0.00000000000E+00  0.00000000000E+00  0.83568831697E+03  0.83568831697E+03  0.00000000000E+00 0. -1.
        2   -1    0    0  503    0  0.00000000000E+00  0.00000000000E+00 -0.96322228551E+03  0.96322228551E+03  0.00000000000E+00 0.  1.
  1000006    1    1    2  501    0 -0.36487975177E+03  0.36350756799E+02  0.45582419555E+03  0.68171424220E+03  0.35000000000E+03 0.  0.
 -1000006    1    1    2    0  502  0.40205747629E+03 -0.10183400088E+03 -0.13997498168E+02  0.54287780202E+03  0.35000000000E+03 0.  0.
        2    1    1    2  502    0 -0.37177724518E+02  0.65483244080E+02 -0.56936066592E+03  0.57431855825E+03  0.00000000000E+00 0.  1.
<scales pt_clust_1="13000.00000" pt_clust_2="13000.00000" pt_clust_3="75.30099"></scales>
<clustering>
<clus scale="   75.301">  2  5  1 -1</clus>
<clus scale="  516.366">  2  4  1 -1</clus>
<clus scale="  516.366">  1  3  2 -1</clus>
</clustering>
</event>
<event>
 5   1  0.3464723E-02  0.3863839E+03  0.7816531E-02  0.1048599E+00
       21   -1    0    0  503  502  0.00000000000E+00  0.00000000000E+00  0.29865812446E+03  0.29865812446E+03  0.00000000000E+00 0.  1.
       21   -1    0    0  504  503  0.00000000000E+00  0.00000000000E+00 -0.69479788333E+03  0.69479788333E+03  0.00000000000E+00 0.  1.
  1000006    1    1    2  501    0  0.13497792640E+03 -0.60075346849E+02 -0.40962043534E+03  0.55867431386E+03  0.35000000000E+03 0.  0.
 -1000006    1    1    2    0  502 -0.14208530478E+03  0.93318865464E+02  0.40716972585E+02  0.39122182498E+03  0.35000000000E+03 0.  0.
       21    1    1    2  504  501  0.71073783817E+01 -0.33243518615E+02 -0.27236296114E+02  0.43559868955E+02  0.00000000000E+00 0.  1.
<scales pt_clust_1="13000.00000" pt_clust_2="13000.00000" pt_clust_3="33.99480"></scales>
<clustering>
<clus scale="   33.995">  2  5  1 -1</clus>
<clus scale="  386.384">  2  3  1 -1</clus>
<clus scale="  386.384">  1  3  2 -1</clus>
</clustering>
</event>
<event>
 5   1  0.3464723E-02  0.3646847E+03  0.7816531E-02  0.1056744E+00
       21   -1    0    0  503  502  0.00000000000E+00  0.00000000000E+00  0.27355992448E+03  0.27355992448E+03  0.00000000000E+00 0.  1.
       21   -1    0    0  504  503  0.00000000000E+00  0.00000000000E+00 -0.12267362149E+04  0.12267362149E+04  0.00000000000E+00 0.  1.
  1000006    1    1    2  501    0 -0.10278444722E+03  0.31219691275E+01 -0.34140356778E+03  0.49963064896E+03  0.35000000000E+03 0.  0.
 -1000006    1    1    2    0  502  0.88004168232E+02 -0.61440219598E+02  0.19429946093E+02  0.36660217814E+03  0.35000000000E+03 0.  0.
       21    1    1    2  504  501  0.14780278992E+02  0.58318250471E+02 -0.63120266870E+03  0.63406331226E+03  0.00000000000E+00 0.  1.
<scales pt_clust_1="13000.00000" pt_clust_2="13000.00000" pt_clust_3="60.16207"></scales>
<clustering>
<clus scale="   60.162">  2  5  1 -1</clus>
<clus scale="  364.685">  2  3  1 -1</clus>
<clus scale="  364.685">  1  3  2 -1</clus>
</clustering>
</event>
<event>
 5   1  0.3464723E-02  0.3564022E+03  0.7816531E-02  0.1060018E+00
       21   -1    0    0  501  502  0.00000000000E+00  0.00000000000E+00  0.23452717255E+03  0.23452717255E+03  0.00000000000E+00 0.  1.
       21   -1    0    0  504  503  0.00000000000E+00  0.00000000000E+00 -0.11049167357E+04  0.11049167357E+04  0.00000000000E+00 0.  1.
  1000006    1    1    2  501    0  0.28929591457E+02 -0.48242804137E+02 -0.16709082528E+00  0.35449163225E+03  0.35000000000E+03 0.  0.
 -1000006    1    1    2    0  503 -0.14178871433E+02  0.12556706630E+03 -0.78620333514E+03  0.86981826419E+03  0.35000000000E+03 0.  0.
       21    1    1    2  504  502 -0.14750720024E+02 -0.77324262165E+02 -0.84019137160E+02  0.11513401178E+03  0.00000000000E+00 0.  1.
<scales pt_clust_1="13000.00000" pt_clust_2="13000.00000" pt_clust_3="78.71865"></scales>
<clustering>
<clus scale="   78.719">  2  5  1 -1</clus>
<clus scale="  356.402">  1  3  2 -1</clus>
<clus scale="  356.402">  1  3  2 -1</clus>
</clustering>
</event>
<event>
 6   2  0.3464723E-02  0.4173914E+03  0.7816531E-02  0.1037919E+00
       21   -1    0    0  501  502  0.00000000000E+00  0.00000000000E+00  0.11312649706E+04  0.11312649706E+04  0.00000000000E+00 0. -1.
       21   -1    0    0  505  503  0.00000000000E+00  0.00000000000E+00 -0.29138635827E+03  0.29138635827E+03  0.00000000000E+00 0. -1.
  1000006    1    1    2  501    0 -0.25177640949E+03 -0.23134600377E+02  0.77918156549E+03  0.89081450489E+03  0.35000000000E+03 0.  0.
 -1000006    1    1    2    0  504  0.15996948966E+03  0.10207127290E+02  0.10382838449E+03  0.39871638604E+03  0.35000000000E+03 0.  0.
       21    1    1    2  504  503  0.35786108580E+02 -0.32743624217E+02  0.84864612614E+00  0.48512995109E+02  0.00000000000E+00 0. -1.
       21    1    1    2  505  502  0.56020811250E+02  0.45671097304E+02 -0.43979983730E+02  0.84607442882E+02  0.00000000000E+00 0. -1.
<scales pt_clust_1="13000.00000" pt_clust_2="13000.00000" pt_clust_3="48.50557" pt_clust_4="74.86540"></scales>
<clustering>
<clus scale="   48.506">  2  5  1 -1</clus>
<clus scale="   74.865">  2  6  1 -1</clus>
<clus scale="  417.391">  2  4  1 -1</clus>
<clus scale="  417.391">  1  3  2 -1</clus>
</clustering>
</event>
<event>
 5   1  0.3464723E-02  0.3666870E+03  0.7816531E-02  0.1055967E+00
       21   -1    0    0  501  503  0.00000000000E+00  0.00000000000E+00  0.12064444123E+03  0.12064444123E+03  0.00000000000E+00 0. -1.
       -2   -1    0    0    0  501  0.00000000000E+00  0.00000000000E+00 -0.25718862271E+04  0.25718862271E+04  0.00000000000E+00 0. -1.
  1000006    1    1    2  502    0 -0.39274082612E+02 -0.20287723066E+03 -0.98825942045E+03  0.10685777026E+04  0.35000000000E+03 0.  0.
 -1000006    1    1    2    0  503  0.81653968105E+02  0.34154594034E+02 -0.36902289330E+03  0.51624781121E+03  0.35000000000E+03 0.  0.
       -2    1    1    2    0  502 -0.42379885493E+02  0.16872263663E+03 -0.10939594721E+04  0.11077051546E+04  0.00000000000E+00 0. -1.
<scales pt_clust_1="13000.00000" pt_clust_2="13000.00000" pt_clust_3="173.96374"></scales>
<clustering>
<clus scale="  173.964">  2  5  1 -1</clus>
<clus scale="  366.687">  1  4  2 -1</clus>
<clus scale="  366.687">  1  3  2 -1</clus>
</clustering>
</event>
<event>
 6   2  0.3464723E-02  0.6558180E+03  0.7816531E-02  0.9795923E-01
       21   -1    0    0  501  502  0.00000000000E+00  0.00000000000E+00  0.27768963893E+03  0.27768963893E+03  0.00000000000E+00 0. -1.
       21   -1    0    0  505  503  0.00000000000E+00  0.00000000000E+00 -0.18537755264E+04  0.18537755264E+04  0.00000000000E+00 0.  1.
  1000006    1    1    2  501    0 -0.34682730473E+03  0.39844655748E+03 -0.54547816303E+03  0.83611916903E+03  0.35000000000E+03 0.  0.
 -1000006    1    1    2    0  503  0.34382115996E+03 -0.48561853162E+03 -0.89678482569E+03  0.11317072819E+04  0.35000000000E+03 0.  0.
       21    1    1    2  504  502 -0.16241767491E+02  0.36466597081E+02 -0.58405377766E+02  0.70744581884E+02  0.00000000000E+00 0. -1.
       21    1    1    2  505  504  0.19247912264E+02  0.50705377056E+02 -0.75417521004E+02  0.92894132556E+02  0.00000000000E+00 0.  1.
<scales pt_clust_1="13000.00000" pt_clust_2="13000.00000" pt_clust_3="30.46648" pt_clust_4="94.17569"></scales>
<clustering>
<clus scale="   30.466">  5  6 -1 -1</clus>
<clus scale="   94.176">  2  5  1 -1</clus>
<clus scale="  655.818">  2  4  1 -1</clus>
<clus scale="  655.818">  1  3  2 -1</clus>
</clustering>
</event>
<event>
 5   1  0.3464723E-02  0.4697399E+03  0.7816531E-02  0.1021994E+00
       21   -1    0    0  503  502  0.00000000000E+00  0.00000000000E+00  0.43728569611E+03  0.43728569611E+03  0.00000000000E+00 0.  1.
       21   -1    0    0  501  503  0.00000000000E+00  0.00000000000E+00 -0.11261199733E+04  0.11261199733E+04  0.00000000000E+00 0.  1.
  1000006    1    1    2  501    0 -0.19773393486E+03  0.24441174564E+03 -0.51394640199E+03  0.69676159088E+03  0.35000000000E+03 0.  0.
 -1000006    1    1    2    0  504  0.15654859189E+03 -0.27237615935E+03 -0.41145659853E+03  0.62489420407E+03  0.35000000000E+03 0.  0.
       21    1    1    2  504  502  0.41185342976E+02  0.27964413705E+02  0.23656872337E+03  0.24174987443E+03  0.00000000000E+00 0.  1.
<scales pt_clust_1="13000.00000" pt_clust_2="13000.00000" pt_clust_3="49.78193"></scales>
<clustering>
<clus scale="   49.782">  1  5  2 -1</clus>
<clus scale="  469.740">  2  3  1 -1</clus>
<clus scale="  469.740">  1  3  2 -1</clus>
</clustering>
</event>
<event>
 6   2  0.3464723E-02  0.5461674E+03  0.7816531E-02  0.1002385E+00
       21   -1    0    0  501  503  0.00000000000E+00  0.00000000000E+00  0.86180738066E+03  0.86180738066E+03  0.00000000000E+00 0. -1.
        2   -1    0    0  504    0  0.00000000000E+00  0.00000000000E+00 -0.39499220866E+04  0.39499220866E+04  0.00000000000E+00 0.  1.
  1000006    1    1    2  501    0 -0.43376169601E+03 -0.81645628874E+02  0.48422240124E+03  0.74282336494E+03  0.35000000000E+03 0.  0.
 -1000006    1    1    2    0  502  0.37982018196E+03 -0.13969144975E+03 -0.12416661122E+03  0.54926716550E+03  0.35000000000E+03 0.  0.
       21    1    1    2  504  503  0.88918289504E+02  0.17635503551E+03 -0.23936475529E+03  0.31032732209E+03  0.00000000000E+00 0.  1.
        2    1    1    2  502    0 -0.34976775459E+02  0.44982043109E+02 -0.32088057407E+04  0.32093116148E+04  0.00000000000E+00 0.  1.
<scales pt_clust_1="13000.00000" pt_clust_2="13000.00000" pt_clust_3="207.44321" pt_clust_4="56.98034"></scales>
<clustering>
<clus scale="   56.980">  2  6  1 -1</clus>
<clus scale="  207.443">  2  5  1 -1</clus>
<clus scale="  546.167">  1  3  2 -1</clus>
<clus scale="  546.167">  1  3  2 -1</clus>
</clustering>
</event>
<event>
 6   2  0.3464723E-02  0.3565519E+03  0.7816531E-02  0.1059958E+00
        1   -1    0    0  502    0  0.00000000000E+00  0.00000000000E+00  0.15146455125E+04  0.15146455125E+04  0.00000000000E+00 0.  1.
        2   -1    0    0  501    0  0.00000000000E+00  0.00000000000E+00 -0.21391027670E+04  0.21391027670E+04  0.00000000000E+00 0.  1.
  1000006    1    1    2  501    0  0.87062139921E+02  0.10185935958E+03 -0.39668106308E+02  0.37686695796E+03  0.35000000000E+03 0.  0.
 -1000006    1    1    2    0  503 -0.17877887883E+02  0.18000543814E+03  0.25962593640E+03  0.47183387276E+03  0.35000000000E+03 0.  0.
        2    1    1    2  502    0 -0.53773964161E+02 -0.17545309731E+03 -0.18171477839E+04  0.18263902916E+04  0.00000000000E+00 0.  1.
        1    1    1    2  503    0 -0.15410287877E+02 -0.10641170040E+03  0.97273269931E+03  0.97865715716E+03  0.00000000000E+00 0.  1.
<scales pt_clust_1="13000.00000" pt_clust_2="13000.00000" pt_clust_3="184.41981" pt_clust_4="107.52175"></scales>
<clustering>
<clus scale="  107.522">  1  6  2 -1</clus>
<clus scale="  184.420">  2  5  1 -1</clus>
<clus scale="  356.552">  1  4  2 -1</clus>
<clus scale="  356.552">  2  3  1 -1</clus>
</clustering>
</event>
<event>
 4   0  0.3464723E-02  0.3611914E+03  0.7816531E-02  0.1058113E+00
       21   -1    0    0  501  502  0.00000000000E+00  0.00000000000E+00  0.34295398791E+03  0.34295398791E+03  0.00000000000E+00 0. -1.
       21   -1    0    0  502  503  0.00000000000E+00  0.00000000000E+00 -0.38338382227E+03  0.38338382227E+03  0.00000000000E+00 0. -1.
  1000006    1    1    2  501    0  0.82999890536E+02  0.32714223353E+02  0.11831774644E+02  0.36138510364E+03  0.35000000000E+03 0.  0.
 -1000006    1    1    2    0  503 -0.82999890536E+02 -0.32714223353E+02 -0.52261608997E+02  0.36495270654E+03  0.35000000000E+03 0.  0.
<scales pt_clust_1="13000.00000" pt_clust_2="13000.00000"></scales>
<clustering>
<clus scale="  361.191">  1  3  2 -1</clus>
<clus scale="  361.191">  1  3  2 -1</clus>
</clustering>
</event>
<event>
 4   0  0.3464723E-02  0.3959444E+03  0.7816531E-02  0.1045193E+00
       21   -1    0    0  501  502  0.00000000000E+00  0.00000000000E+00  0.34342585761E+03  0.34342585761E+03  0.00000000000E+00 0.  1.
       21   -1    0    0  502  503  0.00000000000E+00  0.00000000000E+00 -0.46278239786E+03  0.46278239786E+03  0.00000000000E+00 0.  1.
  1000006    1    1    2  501    0 -0.10254419398E+03  0.15413187233E+03 -0.12690098756E+02  0.39614768003E+03  0.35000000000E+03 0.  0.
 -1000006    1    1    2    0  503  0.10254419398E+03 -0.15413187233E+03 -0.10666644149E+03  0.41006057544E+03  0.35000000000E+03 0.  0.
<scales pt_clust_1="13000.00000" pt_clust_2="13000.00000"></scales>
<clustering>
<clus scale="  395.944">  1  3  2 -1</clus>
<clus scale="  395.944">  1  3  2 -1</clus>
</clustering>
</event>
<event>
 4   0  0.3464723E-02  0.3737164E+03  0.7816531E-02  0.1053281E+00
       21   -1    0    0  501  502  0.00000000000E+00  0.00000000000E+00  0.21191354573E+03  0.21191354573E+03  0.00000000000E+00 0.  1.
       21   -1    0    0  502  503  0.00000000000E+00  0.00000000000E+00 -0.66160489418E+03  0.66160489418E+03  0.00000000000E+00 0.  1.
  1000006    1    1    2  501    0 -0.11311643138E+03 -0.66095561321E+02 -0.19776287863E+03  0.42281687104E+03  0.35000000000E+03 0.  0.
 -1000006    1    1    2    0  503  0.11311643138E+03  0.66095561321E+02 -0.25192846983E+03  0.45070156887E+03  0.35000000000E+03 0.  0.
<scales pt_clust_1="13000.00000" pt_clust_2="13000.00000"></scales>
<clustering>
<clus scale="  373.716">  1  3  2 -1</clus>
<clus scale="  373.716">  1  3  2 -1</clus>
</clustering>
</event>
<event>
 6   2  0.3464723E-02  0.1053305E+04  0.7816531E-02  0.9463642E-01
        1   -1    0    0  504    0  0.00000000000E+00  0.00000000000E+00  0.15841301989E+04  0.15841301989E+04  0.00000000000E+00 0.  1.
       21   -1    0    0  501  503  0.00000000000E+00  0.00000000000E+00 -0.20818861152E+04  0.20818861152E+04  0.00000000000E+00 0. -1.
  1000006    1    1    2  501    0 -0.18015957727E+03 -0.29080415341E+03 -0.70282637838E+03  0.85643998451E+03  0.35000000000E+03 0.  0.
 -1000006    1    1    2    0  502  0.66385328881E+03 -0.61101006697E+03 -0.80660361563E+03  0.12598189885E+04  0.35000000000E+03 0.  0.
       21    1    1    2  504  503 -0.16200358006E+02 -0.25633727274E+02  0.27439571688E+03  0.27606620405E+03  0.00000000000E+00 0. -1.
        1    1    1    2  502    0 -0.46749335353E+03  0.92744794765E+03  0.73727836085E+03  0.12736911370E+04  0.00000000000E+00 0.  1.
<scales pt_clust_1="13000.00000" pt_clust_2="13000.00000" pt_clust_3="30.32391" pt_clust_4="993.45425"></scales>
<clustering>
<clus scale="   30.324">  1  5  2 -1</clus>
<clus scale="  490.658">  2  3  1 -1</clus>
<clus scale="  993.454">  1  6  2 -1</clus>
<clus scale=" 1053.305">  2  3  1 -1</clus>
</clustering>
</event>
<event>
 5   1  0.3464723E-02  0.3575245E+03  0.7816531E-02  0.1059568E+00
       21   -1    0    0  504  502  0.00000000000E+00  0.00000000000E+00  0.15071765535E+04  0.15071765535E+04  0.00000000000E+00 0.  1.
       21   -1    0    0  501  503  0.00000000000E+00  0.00000000000E+00 -0.15615407822E+03  0.15615407822E+03  0.00000000000E+00 0.  1.
  1000006    1    1    2  501    0 -0.16963872175E+02 -0.62581482505E+02  0.18719658247E+03  0.40217754214E+03  0.35000000000E+03 0.  0.
 -1000006    1    1    2    0  502 -0.20228101556E+02  0.74146033699E+02  0.11682335922E+04  0.12219560289E+04  0.35000000000E+03 0.  0.
       21    1    1    2  504  503  0.37191973731E+02 -0.11564551194E+02 -0.44076994433E+01  0.39197060715E+02  0.00000000000E+00 0.  1.
<scales pt_clust_1="13000.00000" pt_clust_2="13000.00000" pt_clust_3="38.94845"></scales>
<clustering>
<clus scale="   38.948">  2  5  1 -1</clus>
<clus scale="  357.524">  2  3  1 -1</clus>
<clus scale="  357.524">  1  3  2 -1</clus>
</clustering>
</event>
<event>
 5   1  0.3464723E-02  0.5466517E+03  0.7816531E-02  0.1002272E+00
       21   -1    0    0  501  502  0.00000000000E+00  0.00000000000E+00  0.11599119166E+04  0.11599119166E+04  0.00000000000E+00 0. -1.
       21   -1    0    0  504  503  0.00000000000E+00  0.00000000000E+00 -0.33418006829E+03  0.33418006829E+03  0.00000000000E+00 0.  1.
  1000006    1    1    2  501    0  0.42527972276E+03  0.56565481802E+02  0.66846623687E+03  0.86799170858E+03  0.35000000000E+03 0.  0.
 -1000006    1    1    2    0  503 -0.40771115838E+03 -0.84821092072E+02  0.90446867457E+02  0.55145592948E+03  0.35000000000E+03 0.  0.
       21    1    1    2  504  502 -0.17568564381E+02  0.28255610270E+02  0.66818743984E+02  0.74644346830E+02  0.00000000000E+00 0. -1.
<scales pt_clust_1="13000.00000" pt_clust_2="13000.00000" pt_clust_3="33.27212"></scales>
<clustering>
<clus scale="   33.272">  1  5  2 -1</clus>
<clus scale="  546.652">  1  3  2 -1</clus>
<clus scale="  546.652">  1  3  2 -1</clus>
</clustering>
</event>
<event>
 5   1  0.3464723E-02  0.3543567E+03  0.7816531E-02  0.1060841E+00
       21   -1    0    0  504  502  0.00000000000E+00  0.00000000000E+00  0.27584602975E+03  0.27584602975E+03  0.00000000000E+00 0.  1.
       21   -1    0    0  501  503  0.00000000000E+00  0.00000000000E+00 -0.50418336620E+03  0.50418336620E+03  0.00000000000E+00 0.  1.
  1000006    1    1    2  501    0  0.38794510906E+02 -0.13389864108E+02 -0.11709652521E+03  0.37134337042E+03  0.35000000000E+03 0.  0.
 -1000006    1    1    2    0  502 -0.72144378838E+02  0.10870330647E+00 -0.10100626168E+03  0.37135843617E+03  0.35000000000E+03 0.  0.
       21    1    1    2  504  503  0.33349867932E+02  0.13281160802E+02 -0.10234549552E+02  0.37327589366E+02  0.00000000000E+00 0. -1.
<scales pt_clust_1="13000.00000" pt_clust_2="13000.00000" pt_clust_3="35.89712"></scales>
<clustering>
<clus scale="   35.897">  1  5  2 -1</clus>
<clus scale="  354.357">  2  3  1 -1</clus>
<clus scale="  354.357">  1  3  2 -1</clus>
</clustering>
</event>
<event>
 4   0  0.3464723E-02  0.3788844E+03  0.7816531E-02  0.1051347E+00
       21   -1    0    0  503  502  0.00000000000E+00  0.00000000000E+00  0.28092495909E+03  0.28092495909E+03  0.00000000000E+00 0. -1.
       21   -1    0    0  501  503  0.00000000000E+00  0.00000000000E+00 -0.58420954245E+03  0.58420954245E+03  0.00000000000E+00 0. -1.
  1000006    1    1    2  501    0 -0.11240207154E+03  0.91755828529E+02 -0.30476716054E+03  0.48624724153E+03  0.35000000000E+03 0.  0.
 -1000006    1    1    2    0  502  0.11240207154E+03 -0.91755828529E+02  0.14825771838E+01  0.37888726000E+03  0.35000000000E+03 0.  0.
<scales pt_clust_1="13000.00000" pt_clust_2="13000.00000"></scales>
<clustering>
<clus scale="  378.884">  2  3  1 -1</clus>
<clus scale="  378.884">  1  3  2 -1</clus>
</clustering>
</event>
<event>
 4   0  0.3464723E-02  0.3578087E+03  0.7816531E-02  0.1059455E+00
       21   -1    0    0  503  502  0.00000000000E+00  0.00000000000E+00  0.24260971167E+03  0.24260971167E+03  0.00000000000E+00 0.  1.
       21   -1    0    0  501  503  0.00000000000E+00  0.00000000000E+00 -0.64912265573E+03  0.64912265573E+03  0.00000000000E+00 0.  1.
  1000006    1    1    2  501    0  0.73639139134E+02 -0.10213210911E+02 -0.39608758158E+03  0.53377186585E+03  0.35000000000E+03 0.  0.
 -1000006    1    1    2    0  502 -0.73639139134E+02  0.10213210911E+02 -0.10425362472E+02  0.35796050155E+03  0.35000000000E+03 0.  0.
<scales pt_clust_1="13000.00000" pt_clust_2="13000.00000"></scales>
<clustering>
<clus scale="  357.809">  2  3  1 -1</clus>
<clus scale="  357.809">  1  3  2 -1</clus>
</clustering>
</event>
<event>
 5   1  0.3464723E-02  0.3548813E+03  0.7816531E-02  0.1060629E+00
       21   -1    0    0  503  502  0.00000000000E+00  0.00000000000E+00  0.33107134374E+03  0.33107134374E+03  0.00000000000E+00 0. -1.
       21   -1    0    0  501  503  0.00000000000E+00  0.00000000000E+00 -0.84653218522E+03  0.84653218522E+03  0.00000000000E+00 0. -1.
  1000006    1    1    2  501    0  0.66261567453E+02 -0.26426644361E+02 -0.54418080976E+03  0.65093910358E+03  0.35000000000E+03 0.  0.
 -1000006    1    1    2    0  504 -0.14587505720E+02  0.35323069232E+02 -0.11762543579E+03  0.37120918320E+03  0.35000000000E+03 0.  0.
       21    1    1    2  504  502 -0.51674061733E+02 -0.88964248711E+01  0.14634540408E+03  0.15545524219E+03  0.00000000000E+00 0. -1.
<scales pt_clust_1="13000.00000" pt_clust_2="13000.00000" pt_clust_3="52.43429"></scales>
<clustering>
<clus scale="   52.434">  1  5  2 -1</clus>
<clus scale="  354.881">  1  4  2 -1</clus>
<clus scale="  354.881">  1  3  2 -1</clus>
</clustering>
</event>
<event>
 6   2  0.3464723E-02  0.4642700E+03  0.7816531E-02  0.1023550E+00
        2   -1    0    0  501    0  0.00000000000E+00  0.00000000000E+00  0.30264877189E+04  0.30264877189E+04  0.00000000000E+00 0.  1.
       21   -1    0    0  504  503  0.00000000000E+00  0.00000000000E+00 -0.32351122452E+03  0.32351122452E+03  0.00000000000E+00 0.  1.
  1000006    1    1    2  501    0  0.36221645383E+03  0.30398450221E+02  0.13274882117E+04  0.14201583635E+04  0.35000000000E+03 0.  0.
 -1000006    1    1    2    0  503 -0.22830115177E+03  0.39460529181E+02  0.66386540497E+03  0.78542716096E+03  0.35000000000E+03 0.  0.
       21    1    1    2  504  502 -0.14533195026E+03 -0.22360382574E+03 -0.12441677441E+03  0.29427806647E+03  0.00000000000E+00 0.  1.
        2    1    1    2  502    0  0.11416648191E+02  0.15374484633E+03  0.83603965210E+03  0.85013535247E+03  0.00000000000E+00 0.  1.
<scales pt_clust_1="13000.00000" pt_clust_2="13000.00000" pt_clust_3="261.44299" pt_clust_4="154.16815"></scales>
<clustering>
<clus scale="  154.168">  1  6  2 -1</clus>
<clus scale="  261.443">  2  5  1 -1</clus>
<clus scale="  464.270">  2  4  1 -1</clus>
<clus scale="  464.270">  2  3  1 -1</clus>
</clustering>
</event>
<event>
 5   1  0.3464723E-02  0.4065762E+03  0.7816531E-02  0.1041526E+00
       21   -1    0    0  501  502  0.00000000000E+00  0.00000000000E+00  0.30302319060E+03  0.30302319060E+03  0.00000000000E+00 0. -1.
       21   -1    0    0  502  503  0.00000000000E+00  0.00000000000E+00 -0.16001194271E+04  0.16001194271E+04  0.00000000000E+00 0. -1.
  1000006    1    1    2  501    0  0.95939251289E+02 -0.23519400662E+03 -0.10244856146E+03  0.44442802391E+03  0.35000000000E+03 0.  0.
 -1000006    1    1    2    0  504 -0.26935893601E+03 -0.50077290524E+02 -0.40470291678E+03  0.60112097143E+03  0.35000000000E+03 0.  0.
       21    1    1    2  504  503  0.17341968472E+03  0.28527129715E+03 -0.78994475828E+03  0.85759362239E+03  0.00000000000E+00 0. -1.
<scales pt_clust_1="13000.00000" pt_clust_2="13000.00000" pt_clust_3="333.84742"></scales>
<clustering>
<clus scale="  333.847">  2  5  1 -1</clus>
<clus scale="  406.576">  1  3  2 -1</clus>
<clus scale="  406.576">  1  3  2 -1</clus>
</clustering>
</event>
<event>
 5   1  0.3464723E-02  0.3593221E+03  0.7816531E-02  0.1058853E+00
       21   -1    0    0  503  502  0.00000000000E+00  0.00000000000E+00  0.21036977661E+03  0.21036977661E+03  0.00000000000E+00 0. -1.
       21   -1    0    0  501  503  0.00000000000E+00  0.00000000000E+00 -0.10278298007E+04  0.10278298007E+04  0.00000000000E+00 0. -1.
  1000006    1    1    2  501    0 -0.70603057659E+02 -0.64639292483E+02 -0.58402478222E+03  0.68756670668E+03  0.35000000000E+03 0.  0.
 -1000006    1    1    2    0  504  0.56602602748E+02  0.23320932466E+02 -0.30403763264E+03  0.46763939376E+03  0.35000000000E+03 0.  0.
       21    1    1    2  504  502  0.14000454911E+02  0.41318360017E+02  0.70602390798E+02  0.82993476844E+02  0.00000000000E+00 0. -1.
<scales pt_clust_1="13000.00000" pt_clust_2="13000.00000" pt_clust_3="43.62591"></scales>
<clustering>
<clus scale="   43.626">  1  5  2 -1</clus>
<clus scale="  359.322">  2  3  1 -1</clus>
<clus scale="  359.322">  1  3  2 -1</clus>
</clustering>
</event>
<event>
 5   1  0.3464723E-02  0.4765205E+03  0.7816531E-02  0.1020096E+00
        1   -1    0    0  501    0  0.00000000000E+00  0.00000000000E+00  0.21338065117E+03  0.21338065117E+03  0.00000000000E+00 0. -1.
       21   -1    0    0  502  503  0.00000000000E+00  0.00000000000E+00 -0.15181863063E+04  0.15181863063E+04  0.00000000000E+00 0. -1.
  1000006    1    1    2  501    0 -0.27154973395E+03 -0.16826011233E+03 -0.31574310112E+03  0.56942464762E+03  0.35000000000E+03 0.  0.
 -1000006    1    1    2    0  503  0.20059803552E+03  0.26535186640E+03 -0.85597078893E+03  0.98277015439E+03  0.35000000000E+03 0.  0.
        1    1    1    2  502    0  0.70951698425E+02 -0.97091754071E+02 -0.13309176505E+03  0.17937215542E+03  0.00000000000E+00 0. -1.
<scales pt_clust_1="13000.00000" pt_clust_2="13000.00000" pt_clust_3="120.25370"></scales>
<clustering>
<clus scale="  120.254">  1  5  2 -1</clus>
<clus scale="  476.521">  1  3  2 -1</clus>
<clus scale="  476.521">  2  3  1 -1</clus>
</clustering>
</event>
<event>
 5   1  0.3464723E-02  0.3699497E+03  0.7816531E-02  0.1054712E+00
       21   -1    0    0  504  502  0.00000000000E+00  0.00000000000E+00  0.69027705872E+03  0.69027705872E+03  0.00000000000E+00 0.  1.
       21   -1    0    0  501  503  0.00000000000E+00  0.00000000000E+00 -0.29147312080E+03  0.29147312080E+03  0.00000000000E+00 0.  1.
  1000006    1    1    2  501    0  0.11687677641E+03  0.53394155938E+02 -0.37194503735E+02  0.37469260449E+03  0.35000000000E+03 0.  0.
 -1000006    1    1    2    0  502 -0.68641955073E+02 -0.79332847366E+02  0.35623928342E+03  0.51030563951E+03  0.35000000000E+03 0.  0.
       21    1    1    2  504  503 -0.48234821336E+02  0.25938691428E+02  0.79759158242E+02  0.96751935515E+02  0.00000000000E+00 0.  1.
<scales pt_clust_1="13000.00000" pt_clust_2="13000.00000" pt_clust_3="54.76690"></scales>
<clustering>
<clus scale="   54.767">  1  5  2 -1</clus>
<clus scale="  369.950">  1  4  2 -1</clus>
<clus scale="  369.950">  1  3  2 -1</clus>
</clustering>
</event>
<event>
 6   2  0.3464723E-02  0.3603124E+03  0.7816531E-02  0.1058460E+00
        2   -1    0    0  501    0  0.00000000000E+00  0.00000000000E+00  0.37262475458E+04  0.37262475458E+04  0.00000000000E+00 0. -1.
       21   -1    0    0  504  503  0.00000000000E+00  0.00000000000E+00 -0.95896412825E+02  0.95896412825E+02  0.00000000000E+00 0. -1.
  1000006    1    1    2  501    0  0.54747782161E+02  0.42330798246E+02  0.15551308456E+04  0.15955316240E+04  0.35000000000E+03 0.  0.
 -1000006    1    1    2    0  503 -0.47843996319E+02 -0.11296230624E+03  0.61910480807E+03  0.72169265895E+03  0.35000000000E+03 0.  0.
       21    1    1    2  504  502  0.23357352013E+02  0.39384757210E+02 -0.23075456805E+01  0.45848116217E+02  0.00000000000E+00 0.  1.
        2    1    1    2  502    0 -0.30261137855E+02  0.31246750786E+02  0.14584230250E+04  0.14590715595E+04  0.00000000000E+00 0. -1.
<scales pt_clust_1="13000.00000" pt_clust_2="13000.00000" pt_clust_3="45.90161" pt_clust_4="43.49823"></scales>
<clustering>
<clus scale="   43.498">  1  6  2 -1</clus>
<clus scale="   45.902">  2  5  1 -1</clus>
<clus scale="  360.312">  1  3  2 -1</clus>
<clus scale="  360.312">  2  3  1 -1</clus>
</clustering>
</event>
<event>
 4   0  0.3464723E-02  0.3613796E+03  0.7816531E-02  0.1058039E+00
       21   -1    0    0  501  502  0.00000000000E+00  0.00000000000E+00  0.11337401998E+04  0.11337401998E+04  0.00000000000E+00 0.  1.
       21   -1    0    0  502  503  0.00000000000E+00  0.00000000000E+00 -0.11757851776E+03  0.11757851776E+03  0.00000000000E+00 0.  1.
  1000006    1    1    2  501    0 -0.88444727191E+02 -0.16515221302E+02  0.59725995531E+03  0.69807927667E+03  0.35000000000E+03 0.  0.
 -1000006    1    1    2    0  503  0.88444727191E+02  0.16515221302E+02  0.41890172674E+03  0.55323944090E+03  0.35000000000E+03 0.  0.
<scales pt_clust_1="13000.00000" pt_clust_2="13000.00000"></scales>
<clustering>
<clus scale="  361.380">  1  3  2 -1</clus>
<clus scale="  361.380">  1  3  2 -1</clus>
</clustering>
</event>
<event>
 5   1  0.3464723E-02  0.4806827E+03  0.7816531E-02  0.1018948E+00
       21   -1    0    0  503  502  0.00000000000E+00  0.00000000000E+00  0.47182435757E+03  0.47182435757E+03  0.00000000000E+00 0.  1.
       21   -1    0    0  501  503  0.00000000000E+00  0.00000000000E+00 -0.70770064737E+03  0.70770064737E+03  0.00000000000E+00 0.  1.
  1000006    1    1    2  501    0 -0.32095713326E+03 -0.10251562965E+03 -0.27458444875E+03  0.55804977844E+03  0.35000000000E+03 0.  0.
 -1000006    1    1    2    0  504  0.29625505039E+03  0.12053955501E+03 -0.95651609494E+02  0.48367971800E+03  0.35000000000E+03 0.  0.
       21    1    1    2  504  502  0.24702082867E+02 -0.18023925361E+02  0.13435976845E+03  0.13779550850E+03  0.00000000000E+00 0.  1.
<scales pt_clust_1="13000.00000" pt_clust_2="13000.00000" pt_clust_3="30.57867"></scales>
<clustering>
<clus scale="   30.579">  1  5  2 -1</clus>
<clus scale="  480.683">  2  3  1 -1</clus>
<clus scale="  480.683">  1  3  2 -1</clus>
</clustering>
</event>
<event>
 5   1  0.3464723E-02  0.3646396E+03  0.7816531E-02  0.1056762E+00
       21   -1    0    0  502  503  0.00000000000E+00  0.00000000000E+00  0.24212462222E+03  0.24212462222E+03  0.00000000000E+00 0.  1.
        4   -1    0    0  501    0  0.00000000000E+00  0.00000000000E+00 -0.79372916835E+03  0.79372916835E+03  0.00000000000E+00 0.  1.
  1000006    1    1    2  501    0 -0.38990762400E+02  0.12940648246E+03 -0.34818292164E+03  0.51185707397E+03  0.35000000000E+03 0.  0.
 -1000006    1    1    2    0  503 -0.57431286833E+02 -0.83000969040E+02 -0.10622419430E+03  0.37943522902E+03  0.35000000000E+03 0.  0.
        4    1    1    2  502    0  0.96422049233E+02 -0.46405513418E+02 -0.97197430184E+02  0.14456148757E+03  0.00000000000E+00 0.  1.
<scales pt_clust_1="13000.00000" pt_clust_2="13000.00000" pt_clust_3="107.00787"></scales>
<clustering>
<clus scale="  107.008">  2  5  1 -1</clus>
<clus scale="  364.640">  1  4  2 -1</clus>
<clus scale="  364.640">  1  3  2 -1</clus>
</clustering>
</event>
<event>
 5   1  0.3464723E-02  0.7069919E+03  0.7816531E-02  0.9705349E-01
       21   -1    0    0  503  502  0.00000000000E+00  0.00000000000E+00  0.61897154000E+03  0.61897154000E+03  0.00000000000E+00 0.  1.
       21   -1    0    0  501  503  0.00000000000E+00  0.00000000000E+00 -0.32031198919E+04  0.32031198919E+04  0.00000000000E+00 0.  1.
  1000006    1    1    2  501    0 -0.10797040827E+02 -0.60316336194E+03 -0.20950622843E+04  0.22081006753E+04  0.35000000000E+03 0.  0.
 -1000006    1    1    2    0  504  0.58365503938E+03  0.61062038330E+03 -0.49770564176E+03  0.10410193866E+04  0.35000000000E+03 0.  0.
       21    1    1    2  504  502 -0.57285799856E+03 -0.74570213603E+01  0.86195741830E+01  0.57297136991E+03  0.00000000000E+00 0.  1.
<scales pt_clust_1="13000.00000" pt_clust_2="13000.00000" pt_clust_3="572.90653"></scales>
<clustering>
<clus scale="  572.907">  1  5  2 -1</clus>
<clus scale="  706.992">  2  3  1 -1</clus>
<clus scale="  706.992">  1  3  2 -1</clus>
</clustering>
</event>
<event>
 6   2  0.3464723E-02  0.3662638E+03  0.7816531E-02  0.1056131E+00
       21   -1    0    0  501  502  0.00000000000E+00  0.00000000000E+00  0.42394879242E+03  0.42394879242E+03  0.00000000000E+00 0. -1.
       21   -1    0    0  504  503  0.00000000000E+00  0.00000000000E+00 -0.10119880622E+04  0.10119880622E+04  0.00000000000E+00 0.  1.
  1000006    1    1    2  501    0  0.11058658251E+03 -0.74148158100E+02  0.13080286899E+03  0.39665694513E+03  0.35000000000E+03 0.  0.
 -1000006    1    1    2    0  505 -0.79288310838E+02 -0.33923615210E+01 -0.58054495689E+02  0.36354981615E+03  0.35000000000E+03 0.  0.
       21    1    1    2  504  502 -0.32629574585E+02  0.14918132068E+02 -0.48928379032E+02  0.60673108349E+02  0.00000000000E+00 0.  1.
       21    1    1    2  505  503  0.13313029095E+01  0.62622387554E+02 -0.61185926402E+03  0.61505698497E+03  0.00000000000E+00 0.  1.
<scales pt_clust_1="13000.00000" pt_clust_2="13000.00000" pt_clust_3="35.87812" pt_clust_4="74.79204"></scales>
<clustering>
<clus scale="   35.878">  2  5  1 -1</clus>
<clus scale="   74.792">  2  6  1 -1</clus>
<clus scale="  366.264">  1  3  2 -1</clus>
<clus scale="  366.264">  1  3  2 -1</clus>
</clustering>
</event>
<event>
 4   0  0.3464723E-02  0.4026621E+03  0.7816531E-02  0.1042862E+00
       21   -1    0    0  503  502  0.00000000000E+00  0.00000000000E+00  0.38672495365E+03  0.38672495365E+03  0.00000000000E+00 0.  1.
       21   -1    0    0  501  503  0.00000000000E+00  0.00000000000E+00 -0.72633759232E+03  0.72633759232E+03  0.00000000000E+00 0.  1.
  1000006    1    1    2  501    0 -0.10022443071E+03 -0.17202274734E+03 -0.53167183237E+03  0.66694205104E+03  0.35000000000E+03 0.  0.
 -1000006    1    1    2    0  502  0.10022443071E+03  0.17202274734E+03  0.19205919370E+03  0.44612049493E+03  0.35000000000E+03 0.  0.
<scales pt_clust_1="13000.00000" pt_clust_2="13000.00000"></scales>
<clustering>
<clus scale="  402.662">  2  3  1 -1</clus>
<clus scale="  402.662">  1  3  2 -1</clus>
</clustering>
</event>
<event>
 4   0  0.3464723E-02  0.3789003E+03  0.7816531E-02  0.1051341E+00
       21   -1    0    0  503  502  0.00000000000E+00  0.00000000000E+00  0.17387916321E+03  0.17387916321E+03  0.00000000000E+00 0.  1.
       21   -1    0    0  501  503  0.00000000000E+00  0.00000000000E+00 -0.92940223655E+03  0.92940223655E+03  0.00000000000E+00 0.  1.
  1000006    1    1    2  501    0  0.54264619450E+02 -0.13461335295E+03 -0.56206276466E+03  0.67784950773E+03  0.35000000000E+03 0.  0.
 -1000006    1    1    2    0  502 -0.54264619450E+02  0.13461335295E+03 -0.19346030868E+03  0.42543189202E+03  0.35000000000E+03 0.  0.
<scales pt_clust_1="13000.00000" pt_clust_2="13000.00000"></scales>
<clustering>
<clus scale="  378.900">  2  3  1 -1</clus>
<clus scale="  378.900">  1  3  2 -1</clus>
</clustering>
</event>
<event>
 6   2  0.3464723E-02  0.4078845E+03  0.7816531E-02  0.1041083E+00
        2   -1    0    0  503    0  0.00000000000E+00  0.00000000000E+00  0.93216780108E+03  0.93216780108E+03  0.00000000000E+00 0. -1.
       21   -1    0    0  504  503  0.00000000000E+00  0.00000000000E+00 -0.49131555490E+03  0.49131555490E+03  0.00000000000E+00 0. -1.
  1000006    1    1    2  501    0  0.36867041693E+02  0.15539236111E+03 -0.31110616913E+02  0.38597128797E+03  0.35000000000E+03 0.  0.
 -1000006    1    1    2    0  502 -0.16965559013E+03 -0.21403807955E+03 -0.28849817374E+02  0.44489058287E+03  0.35000000000E+03 0.  0.
       21    1    1    2  504  501  0.30248152781E+02  0.39311067450E+02 -0.25702906778E+02  0.55865465071E+02  0.00000000000E+00 0. -1.
        2    1    1    2  502    0  0.10254039566E+03  0.19334650989E+02  0.52651558724E+03  0.53675602007E+03  0.00000000000E+00 0. -1.
<scales pt_clust_1="13000.00000" pt_clust_2="13000.00000" pt_clust_3="49.60152" pt_clust_4="104.76858"></scales>
<clustering>
<clus scale="   49.602">  2  5  1 -1</clus>
<clus scale="  104.769">  1  6  2 -1</clus>
<clus scale="  407.885">  1  4  2 -1</clus>
<clus scale="  407.885">  2  3  1 -1</clus>
</clustering>
</event>
<event>
 5   1  0.3464723E-02  0.3578506E+03  0.7816531E-02  0.1059438E+00
       21   -1    0    0  501  502  0.00000000000E+00  0.00000000000E+00  0.61535481628E+03  0.61535481628E+03  0.00000000000E+00 0. -1.
       21   -1    0    0  504  503  0.00000000000E+00  0.00000000000E+00 -0.41001755781E+03  0.41001755781E+03  0.00000000000E+00 0. -1.
  1000006    1    1    2  501    0  0.63382356576E+02 -0.73797795693E+02  0.14038062843E+03  0.38944853140E+03  0.35000000000E+03 0.  0.
 -1000006    1    1    2    0  503 -0.30737857480E+02  0.57941892035E+02 -0.17252485456E+03  0.39568536007E+03  0.35000000000E+03 0.  0.
       21    1    1    2  504  502 -0.32644499096E+02  0.15855903659E+02  0.23748148460E+03  0.24023848261E+03  0.00000000000E+00 0. -1.
<scales pt_clust_1="13000.00000" pt_clust_2="13000.00000" pt_clust_3="36.29150"></scales>
<clustering>
<clus scale="   36.292">  1  5  2 -1</clus>
<clus scale="  357.851">  2  4  1 -1</clus>
<clus scale="  357.851">  1  3  2 -1</clus>
</clustering>
</event>
<event>
 5   1  0.3464723E-02  0.4766983E+03  0.7816531E-02  0.1020047E+00
       21   -1    0    0  504  502  0.00000000000E+00  0.00000000000E+00  0.18847919361E+03  0.18847919361E+03  0.00000000000E+00 0.  1.
       21   -1    0    0  501  503  0.00000000000E+00  0.00000000000E+00 -0.13784243788E+04  0.13784243788E+04  0.00000000000E+00 0.  1.
  1000006    1    1    2  501    0  0.12263941134E+03  0.26857054081E+03 -0.54231020749E+03  0.70976821692E+03  0.35000000000E+03 0.  0.
 -1000006    1    1    2    0  502 -0.15702785021E+03 -0.31712268744E+03 -0.60756105598E+03  0.78540115952E+03  0.35000000000E+03 0.  0.
       21    1    1    2  504  503  0.34388438872E+02  0.48552146626E+02 -0.40073921753E+02  0.71734195992E+02  0.00000000000E+00 0. -1.
<scales pt_clust_1="13000.00000" pt_clust_2="13000.00000" pt_clust_3="59.49685"></scales>
<clustering>
<clus scale="   59.497">  1  5  2 -1</clus>
<clus scale="  476.698">  2  3  1 -1</clus>
<clus scale="  476.698">  1  3  2 -1</clus>
</clustering>
</event>
<event>
 4   0  0.3464723E-02  0.3735158E+03  0.7816531E-02  0.1053357E+00
       21   -1    0    0  503  502  0.00000000000E+00  0.00000000000E+00  0.16903686127E+03  0.16903686127E+03  0.00000000000E+00 0.  1.
       21   -1    0    0  501  503  0.00000000000E+00  0.00000000000E+00 -0.13654049011E+04  0.13654049011E+04  0.00000000000E+00 0.  1.
  1000006    1    1    2  501    0 -0.12816650741E+03  0.24236348219E+02 -0.10806979731E+04  0.11434256265E+04  0.35000000000E+03 0.  0.
 -1000006    1    1    2    0  502  0.12816650741E+03 -0.24236348219E+02 -0.11567006671E+03  0.39101613589E+03  0.35000000000E+03 0.  0.
<scales pt_clust_1="13000.00000" pt_clust_2="13000.00000"></scales>
<clustering>
<clus scale="  373.516">  2  3  1 -1</clus>
<clus scale="  373.516">  1  3  2 -1</clus>
</clustering>
</event>
<event>
 4   0  0.3464723E-02  0.5046579E+03  0.7816531E-02  0.1012570E+00
       21   -1    0    0  503  502  0.00000000000E+00  0.00000000000E+00  0.50735550652E+03  0.50735550652E+03  0.00000000000E+00 0.  1.
       21   -1    0    0  501  503  0.00000000000E+00  0.00000000000E+00 -0.51075530704E+03  0.51075530704E+03  0.00000000000E+00 0. -1.
  1000006    1    1    2  501    0 -0.96271279221E+02 -0.35058733238E+03 -0.68445164945E+02  0.50927829075E+03  0.35000000000E+03 0.  0.
 -1000006    1    1    2    0  502  0.96271279221E+02  0.35058733238E+03  0.65045364425E+02  0.50883252280E+03  0.35000000000E+03 0.  0.
<scales pt_clust_1="13000.00000" pt_clust_2="13000.00000"></scales>
<clustering>
<clus scale="  504.658">  2  3  1 -1</clus>
<clus scale="  504.658">  1  3  2 -1</clus>
</clustering>
</event>
<event>
 5   1  0.3464723E-02  0.5033464E+03  0.7816531E-02  0.1012909E+00
       21   -1    0    0  503  502  0.00000000000E+00  0.00000000000E+00  0.10995876711E+04  0.10995876711E+04  0.00000000000E+00 0. -1.
       21   -1    0    0  504  503  0.00000000000E+00  0.00000000000E+00 -0.27475518300E+03  0.27475518300E+03  0.00000000000E+00 0. -1.
  1000006    1    1    2  501    0 -0.15817639185E+03 -0.30117767426E+03  0.26197442958E+03  0.55394797966E+03  0.35000000000E+03 0.  0.
 -1000006    1    1    2    0  502  0.18719875328E+03  0.32628388773E+03  0.58295837007E+03  0.77707464883E+03  0.35000000000E+03 0.  0.
       21    1    1    2  504  501 -0.29022361428E+02 -0.25106213473E+02 -0.20100311590E+02  0.43320225575E+02  0.00000000000E+00 0.  1.
<scales pt_clust_1="13000.00000" pt_clust_2="13000.00000" pt_clust_3="38.37472"></scales>
<clustering>
<clus scale="   38.375">  2  5  1 -1</clus>
<clus scale="  503.346">  2  3  1 -1</clus>
<clus scale="  503.346">  1  3  2 -1</clus>
</clustering>
</event>
<event>
 6   2  0.3464723E-02  0.3952166E+03  0.7816531E-02  0.1045449E+00
       21   -1    0    0  503  502  0.00000000000E+00  0.00000000000E+00  0.10909039794E+04  0.10909039794E+04  0.00000000000E+00 0. -1.
       21   -1    0    0  501  503  0.00000000000E+00  0.00000000000E+00 -0.10716163019E+04  0.10716163019E+04  0.00000000000E+00 0.  1.
  1000006    1    1    2  501    0  0.16194366170E+03 -0.11377201758E+03 -0.72864770349E+03  0.83222430712E+03  0.35000000000E+03 0.  0.
 -1000006    1    1    2    0  505 -0.10134317223E+03  0.10945275141E+03 -0.13771068234E+03  0.40461657823E+03  0.35000000000E+03 0.  0.
       21    1    1    2  504  502  0.40847952106E+01  0.88931047524E+02  0.73951659574E+03  0.74485583312E+03  0.00000000000E+00 0. -1.
       21    1    1    2  505  504 -0.64685284682E+02 -0.84611781361E+02  0.14612946757E+03  0.18082356288E+03  0.00000000000E+00 0. -1.
<scales pt_clust_1="13000.00000" pt_clust_2="13000.00000" pt_clust_3="89.02481" pt_clust_4="76.04192"></scales>
<clustering>
<clus scale="   89.025">  1  5  2 -1</clus>
<clus scale="   76.042">  1  6  2 -1</clus>
<clus scale="  395.217">  1  4  2 -1</clus>
<clus scale="  395.217">  1  3  2 -1</clus>
</clustering>
</event>
<event>
 5   1  0.3464723E-02  0.5124604E+03  0.7816531E-02  0.1010577E+00
        1   -1    0    0  501    0  0.00000000000E+00  0.00000000000E+00  0.19297540107E+04  0.19297540107E+04  0.00000000000E+00 0. -1.
       21   -1    0    0  502  503  0.00000000000E+00  0.00000000000E+00 -0.19884825184E+03  0.19884825184E+03  0.00000000000E+00 0. -1.
  1000006    1    1    2  501    0  0.25254731992E+02  0.39293164922E+03  0.87647951735E+03  0.10226189059E+04  0.35000000000E+03 0.  0.
 -1000006    1    1    2    0  503 -0.11655368448E+03 -0.34329656215E+03  0.86546233271E+03  0.10014800748E+04  0.35000000000E+03 0.  0.
        1    1    1    2  502    0  0.91298952484E+02 -0.49635087068E+02 -0.11036091202E+02  0.10450328178E+03  0.00000000000E+00 0. -1.
<scales pt_clust_1="13000.00000" pt_clust_2="13000.00000" pt_clust_3="103.91891"></scales>
<clustering>
<clus scale="  103.919">  2  5  1 -1</clus>
<clus scale="  827.234">  3  4 -1 -1</clus>
<clus scale="  512.460">  2  3  1 -1</clus>
</clustering>
</event>
<event>
 4   0  0.3464723E-02  0.4348204E+03  0.7816531E-02  0.1032348E+00
        1   -1    0    0  502    0  0.00000000000E+00  0.00000000000E+00  0.83826336494E+03  0.83826336494E+03  0.00000000000E+00 0. -1.
       -1   -1    0    0    0  501  0.00000000000E+00  0.00000000000E+00 -0.37794790497E+03  0.37794790497E+03  0.00000000000E+00 0.  1.
  1000006    1    1    2  502    0  0.13793155135E+03  0.21804504033E+03 -0.15599151391E+03  0.46195465674E+03  0.35000000000E+03 0.  0.
 -1000006    1    1    2    0  501 -0.13793155135E+03 -0.21804504033E+03  0.61630697388E+03  0.75425661318E+03  0.35000000000E+03 0.  0.
<scales pt_clust_1="13000.00000" pt_clust_2="13000.00000"></scales>
<clustering>
<clus scale="  948.567">  3  4 -1 -1</clus>
<clus scale="  434.820">  1  3  2 -1</clus>
</clustering>
</event>
<event>
 4   0  0.3464723E-02  0.3815917E+03  0.7816531E-02  0.1050347E+00
       21   -1    0    0  501  502  0.00000000000E+00  0.00000000000E+00  0.10608560100E+04  0.10608560100E+04  0.00000000000E+00 0. -1.
       21   -1    0    0  502  503  0.00000000000E+00  0.00000000000E+00 -0.13727338867E+03  0.13727338867E+03  0.00000000000E+00 0. -1.
  1000006    1    1    2  501    0 -0.14741603737E+03 -0.37158134670E+02  0.46788829942E+03  0.60376458639E+03  0.35000000000E+03 0.  0.
 -1000006    1    1    2    0  503  0.14741603737E+03  0.37158134670E+02  0.45569432189E+03  0.59436481225E+03  0.35000000000E+03 0.  0.
<scales pt_clust_1="13000.00000" pt_clust_2="13000.00000"></scales>
<clustering>
<clus scale="  381.592">  1  3  2 -1</clus>
<clus scale="  381.592">  1  3  2 -1</clus>
</clustering>
</event>
<event>
 6   2  0.3464723E-02  0.3636767E+03  0.7816531E-02  0.1057137E+00
       21   -1    0    0  504  502  0.00000000000E+00  0.00000000000E+00  0.64014915657E+03  0.64014915657E+03  0.00000000000E+00 0. -1.
       21   -1    0    0  502  503  0.00000000000E+00  0.00000000000E+00 -0.42424334532E+03  0.42424334532E+03  0.00000000000E+00 0. -1.
  1000006    1    1    2  501    0 -0.41561606445E+02 -0.12070444618E+03  0.43129012063E+02  0.37504272042E+03  0.35000000000E+03 0.  0.
 -1000006    1    1    2    0  503  0.13054461702E+03 -0.28596695230E+02 -0.58522974358E+02  0.37918940721E+03  0.35000000000E+03 0.  0.
       21    1    1    2  504  505  0.14826937187E+02  0.52943529292E+02  0.11281256208E+03  0.12549712955E+03  0.00000000000E+00 0. -1.
       21    1    1    2  505  501 -0.10380994776E+03  0.96357612116E+02  0.11848721147E+03  0.18466324472E+03  0.00000000000E+00 0. -1.
<scales pt_clust_1="13000.00000" pt_clust_2="13000.00000" pt_clust_3="54.98050" pt_clust_4="149.63277"></scales>
<clustering>
<clus scale="   54.980">  1  5  2 -1</clus>
<clus scale="  149.633">  1  6  2 -1</clus>
<clus scale="  363.677">  1  3  2 -1</clus>
<clus scale="  363.677">  1  3  2 -1</clus>
</clustering>
</event>
<event>
 5   1  0.3464723E-02  0.5127897E+03  0.7816531E-02  0.1010493E+00
       21   -1    0    0  504  502  0.00000000000E+00  0.00000000000E+00  0.31576250128E+03  0.31576250128E+03  0.00000000000E+00 0.  1.
       21   -1    0    0  502  503  0.00000000000E+00  0.00000000000E+00 -0.11445058810E+04  0.11445058810E+04  0.00000000000E+00 0.  1.
  1000006    1    1    2  501    0 -0.12328635586E+03 -0.37946613593E+03 -0.42770220530E+03  0.68163278258E+03  0.35000000000E+03 0.  0.
 -1000006    1    1    2    0  503  0.88950084838E+02  0.34341566261E+03 -0.47567410524E+03  0.68892110529E+03  0.35000000000E+03 0.  0.
       21    1    1    2  504  501  0.34336271025E+02  0.36050473325E+02  0.74632930854E+02  0.89714494385E+02  0.00000000000E+00 0. -1.
<scales pt_clust_1="13000.00000" pt_clust_2="13000.00000" pt_clust_3="49.78570"></scales>
<clustering>
<clus scale="   49.786">  1  5  2 -1</clus>
<clus scale="  512.790">  1  3  2 -1</clus>
<clus scale="  512.790">  1  3  2 -1</clus>
</clustering>
</event>
<event>
 6   2  0.3464723E-02  0.3664177E+03  0.7816531E-02  0.1056071E+00
       21   -1    0    0  505  502  0.00000000000E+00  0.00000000000E+00  0.94985087985E+03  0.94985087985E+03  0.00000000000E+00 0. -1.
       21   -1    0    0  501  503  0.00000000000E+00  0.00000000000E+00 -0.29795880104E+03  0.29795880104E+03  0.00000000000E+00 0. -1.
  1000006    1    1    2  501    0 -0.70972626817E+02  0.18345931131E+03  0.23832714456E+02  0.40219700514E+03  0.35000000000E+03 0.  0.
 -1000006    1    1    2    0  502  0.99998316563E+02 -0.17459676002E+02  0.54323252268E+03  0.65414530290E+03  0.35000000000E+03 0.  0.
       21    1    1    2  504  503 -0.51792500305E+01 -0.87746480630E+02  0.29535909459E+02  0.92728849024E+02  0.00000000000E+00 0. -1.
       21    1    1    2  505  504 -0.23846439715E+02 -0.78253154679E+02  0.55290932214E+02  0.98738523836E+02  0.00000000000E+00 0. -1.
<scales pt_clust_1="13000.00000" pt_clust_2="13000.00000" pt_clust_3="171.65128" pt_clust_4="31.49461"></scales>
<clustering>
<clus scale="   31.495">  5  6 -1 -1</clus>
<clus scale="  171.651">  2  5  1 -1</clus>
<clus scale="  366.418">  2  3  1 -1</clus>
<clus scale="  366.418">  1  3  2 -1</clus>
</clustering>
</event>
<event>
 4   0  0.3464723E-02  0.3831041E+03  0.7816531E-02  0.1049792E+00
       21   -1    0    0  501  502  0.00000000000E+00  0.00000000000E+00  0.29953485994E+03  0.29953485994E+03  0.00000000000E+00 0.  1.
       21   -1    0    0  502  503  0.00000000000E+00  0.00000000000E+00 -0.57425815852E+03  0.57425815852E+03  0.00000000000E+00 0.  1.
  1000006    1    1    2  501    0  0.12571894593E+02  0.15527621389E+03  0.30001402373E+02  0.38427703454E+03  0.35000000000E+03 0.  0.
 -1000006    1    1    2    0  503 -0.12571894593E+02 -0.15527621389E+03 -0.30472470096E+03  0.48951598391E+03  0.35000000000E+03 0.  0.
<scales pt_clust_1="13000.00000" pt_clust_2="13000.00000"></scales>
<clustering>
<clus scale="  383.104">  1  3  2 -1</clus>
<clus scale="  383.104">  1  3  2 -1</clus>
</clustering>
</event>
<event>
 6   2  0.3464723E-02  0.4824016E+03  0.7816531E-02  0.1018477E+00
       21   -1    0    0  503  502  0.00000000000E+00  0.00000000000E+00  0.63550766472E+03  0.63550766472E+03  0.00000000000E+00 0. -1.
       21   -1    0    0  501  503  0.00000000000E+00  0.00000000000E+00 -0.61038259892E+03  0.61038259892E+03  0.00000000000E+00 0. -1.
  1000006    1    1    2  501    0  0.32075365293E+03  0.21116282550E+03 -0.18531705807E+03  0.55164758384E+03  0.35000000000E+03 0.  0.
 -1000006    1    1    2    0  504 -0.16290848407E+03 -0.20367228374E+03  0.11275504709E+03  0.45081623085E+03  0.35000000000E+03 0.  0.
       21    1    1    2  504  505 -0.13879649579E+03 -0.39158089903E+02  0.57376406237E+01  0.14432859650E+03  0.00000000000E+00 0. -1.
       21    1    1    2  505  502 -0.19048673066E+02  0.31667548149E+02  0.91949436156E+02  0.99097852453E+02  0.00000000000E+00 0.  1.
<scales pt_clust_1="13000.00000" pt_clust_2="13000.00000" pt_clust_3="145.65141" pt_clust_4="36.95518"></scales>
<clustering>
<clus scale="   36.955">  1  6  2 -1</clus>
<clus scale="  145.651">  1  5  2 -1</clus>
<clus scale="  482.402">  1  4  2 -1</clus>
<clus scale="  482.402">  1  3  2 -1</clus>
</clustering>
</event>
<event>
 5   1  0.3464723E-02  0.3546788E+03  0.7816531E-02  0.1060711E+00
       21   -1    0    0  504  502  0.00000000000E+00  0.00000000000E+00  0.13640357308E+03  0.13640357308E+03  0.00000000000E+00 0.  1.
       21   -1    0    0  501  503  0.00000000000E+00  0.00000000000E+00 -0.11667295721E+04  0.11667295721E+04  0.00000000000E+00 0.  1.
  1000006    1    1    2  501    0  0.60950720862E+02  0.36740856295E+02 -0.46358885198E+03  0.58521748485E+03  0.35000000000E+03 0.  0.
 -1000006    1    1    2    0  502 -0.28298125594E+02 -0.39482710211E+02 -0.34526281089E+03  0.49403044127E+03  0.35000000000E+03 0.  0.
       21    1    1    2  504  503 -0.32652595268E+02  0.27418539165E+01 -0.22147433614E+03  0.22388521905E+03  0.00000000000E+00 0.  1.
<scales pt_clust_1="13000.00000" pt_clust_2="13000.00000" pt_clust_3="32.76751"></scales>
<clustering>
<clus scale="   32.768">  2  5  1 -1</clus>
<clus scale="  354.679">  2  3  1 -1</clus>
<clus scale="  354.679">  1  3  2 -1</clus>
</clustering>
</event>
<event>
 5   1  0.3464723E-02  0.3860683E+03  0.7816531E-02  0.1048713E+00
       21   -1    0    0  503  502  0.00000000000E+00  0.00000000000E+00  0.16842502415E+04  0.16842502415E+04  0.00000000000E+00 0.  1.
       21   -1    0    0  504  503  0.00000000000E+00  0.00000000000E+00 -0.40265748032E+03  0.40265748032E+03  0.00000000000E+00 0.  1.
  1000006    1    1    2  501    0  0.70845760002E+02 -0.12882442091E+03  0.45656743362E+03  0.59377493596E+03  0.35000000000E+03 0.  0.
 -1000006    1    1    2    0  502 -0.46819611160E+02  0.16533792496E+03  0.11246576575E+04  0.11903291780E+04  0.35000000000E+03 0.  0.
       21    1    1    2  504  501 -0.24026148843E+02 -0.36513504051E+02 -0.29963232993E+03  0.30280360788E+03  0.00000000000E+00 0.  1.
<scales pt_clust_1="13000.00000" pt_clust_2="13000.00000" pt_clust_3="43.70917"></scales>
<clustering>
<clus scale="   43.709">  2  5  1 -1</clus>
<clus scale="  386.068">  2  3  1 -1</clus>
<clus scale="  386.068">  1  3  2 -1</clus>
</clustering>
</event>
<event>
 4   0  0.3464723E-02  0.3802797E+03  0.7816531E-02  0.1050830E+00
       21   -1    0    0  501  502  0.00000000000E+00  0.00000000000E+00  0.12988756243E+04  0.12988756243E+04  0.00000000000E+00 0. -1.
       21   -1    0    0  502  503  0.00000000000E+00  0.00000000000E+00 -0.16223827070E+03  0.16223827070E+03  0.00000000000E+00 0. -1.
  1000006    1    1    2  501    0  0.14707199392E+03  0.21965223095E+02  0.97752527668E+03  0.10488890833E+04  0.35000000000E+03 0.  0.
 -1000006    1    1    2    0  503 -0.14707199392E+03 -0.21965223095E+02  0.15911207696E+03  0.41222481179E+03  0.35000000000E+03 0.  0.
<scales pt_clust_1="13000.00000" pt_clust_2="13000.00000"></scales>
<clustering>
<clus scale="  380.280">  1  3  2 -1</clus>
<clus scale="  380.280">  1  3  2 -1</clus>
</clustering>
</event>
<event>
 6   2  0.3464723E-02  0.6140592E+03  0.7816531E-02  0.9876659E-01
        2   -1    0    0  504    0  0.00000000000E+00  0.00000000000E+00  0.16774132888E+04  0.16774132888E+04  0.00000000000E+00 0.  1.
       21   -1    0    0  502  503  0.00000000000E+00  0.00000000000E+00 -0.10179959751E+04  0.10179959751E+04  0.00000000000E+00 0.  1.
  1000006    1    1    2  501    0 -0.32347535659E+03 -0.32872287625E+03  0.64783706617E+03  0.86884285115E+03  0.35000000000E+03 0.  0.
 -1000006    1    1    2    0  503  0.29352818748E+03  0.41879245429E+03 -0.79692408366E+03  0.10095216252E+04  0.35000000000E+03 0.  0.
       21    1    1    2  504  501 -0.98433614507E+01 -0.31555680752E+02  0.10722597604E+03  0.11220544858E+03  0.00000000000E+00 0. -1.
        2    1    1    2  502    0  0.39790530560E+02 -0.58513897289E+02  0.70127835512E+03  0.70483933904E+03  0.00000000000E+00 0.  1.
<scales pt_clust_1="13000.00000" pt_clust_2="13000.00000" pt_clust_3="33.05530" pt_clust_4="80.81925"></scales>
<clustering>
<clus scale="   33.055">  1  5  2 -1</clus>
<clus scale="   80.819">  1  6  2 -1</clus>
<clus scale="  614.059">  1  3  2 -1</clus>
<clus scale="  614.059">  2  3  1 -1</clus>
</clustering>
</event>
<event>
 4   0  0.3464723E-02  0.4136143E+03  0.7816531E-02  0.1039165E+00
       -2   -1    0    0    0  501  0.00000000000E+00  0.00000000000E+00  0.29149108501E+03  0.29149108501E+03  0.00000000000E+00 0. -1.
        2   -1    0    0  502    0  0.00000000000E+00  0.00000000000E+00 -0.58691211407E+03  0.58691211407E+03  0.00000000000E+00 0.  1.
  1000006    1    1    2  502    0  0.18959589513E+03 -0.11238413064E+03 -0.14950396776E+03  0.43980476651E+03  0.35000000000E+03 0.  0.
 -1000006    1    1    2    0  501 -0.18959589513E+03  0.11238413064E+03 -0.14591706130E+03  0.43859843256E+03  0.35000000000E+03 0.  0.
<scales pt_clust_1="13000.00000" pt_clust_2="13000.00000"></scales>
<clustering>
<clus scale="  562.866">  3  4 -1 -1</clus>
<clus scale="  413.614">  2  3  1 -1</clus>
</clustering>
</event>
<event>
 4   0  0.3464723E-02  0.4232562E+03  0.7816531E-02  0.1036012E+00
        1   -1    0    0  502    0  0.00000000000E+00  0.00000000000E+00  0.88179243169E+03  0.88179243169E+03  0.00000000000E+00 0.  1.
       -1   -1    0    0    0  501  0.00000000000E+00  0.00000000000E+00 -0.21371326928E+03  0.21371326928E+03  0.00000000000E+00 0. -1.
  1000006    1    1    2  502    0 -0.21607013030E+03  0.99797397983E+02  0.45575401323E+03  0.62197873149E+03  0.35000000000E+03 0.  0.
 -1000006    1    1    2    0  501  0.21607013030E+03 -0.99797397983E+02  0.21232514918E+03  0.47352696948E+03  0.35000000000E+03 0.  0.
<scales pt_clust_1="13000.00000" pt_clust_2="13000.00000"></scales>
<clustering>
<clus scale="  621.533">  3  4 -1 -1</clus>
<clus scale="  423.256">  1  3  2 -1</clus>
</clustering>
</event>
<event>
 4   0  0.3464723E-02  0.1065332E+04  0.7816531E-02  0.9239656E-01
       21   -1    0    0  503  502  0.00000000000E+00  0.00000000000E+00  0.12057967180E+04  0.12057967180E+04  0.00000000000E+00 0.  1.
       21   -1    0    0  501  503  0.00000000000E+00  0.00000000000E+00 -0.94653080460E+03  0.94653080460E+03  0.00000000000E+00 0. -1.
  1000006    1    1    2  501    0  0.56690372754E+03 -0.83129619956E+03  0.49105797560E+02  0.10664635892E+04  0.35000000000E+03 0.  0.
 -1000006    1    1    2    0  502 -0.56690372754E+03  0.83129619956E+03  0.21016011589E+03  0.10858639335E+04  0.35000000000E+03 0.  0.
<scales pt_clust_1="13000.00000" pt_clust_2="13000.00000"></scales>
<clustering>
<clus scale=" 1065.332">  2  3  1 -1</clus>
<clus scale=" 1065.332">  1  3  2 -1</clus>
</clustering>
</event>
<event>
 5   1  0.3464723E-02  0.5902374E+03  0.7816531E-02  0.9925870E-01
       -2   -1    0    0    0  501  0.00000000000E+00  0.00000000000E+00  0.74952361086E+03  0.74952361086E+03  0.00000000000E+00 0.  1.
        2   -1    0    0  502    0  0.00000000000E+00  0.00000000000E+00 -0.71571857744E+03  0.71571857744E+03  0.00000000000E+00 0. -1.
  1000006    1    1    2  502    0  0.35956365496E+03  0.27073046727E+03  0.18077203109E+02  0.57044525868E+03  0.35000000000E+03 0.  0.
 -1000006    1    1    2    0  503 -0.42614304859E+03 -0.25103312854E+03 -0.22341517644E+03  0.64577849960E+03  0.35000000000E+03 0.  0.
       21    1    1    2  503  501  0.66579393624E+02 -0.19697338724E+02  0.23914300676E+03  0.24901843002E+03  0.00000000000E+00 0. -1.
<scales pt_clust_1="13000.00000" pt_clust_2="13000.00000" pt_clust_3="69.43199"></scales>
<clustering>
<clus scale="   69.432">  1  5  2 -1</clus>
<clus scale=" 1031.851">  3  4 -1 -1</clus>
<clus scale="  590.237">  2  3  1 -1</clus>
</clustering>
</event>
<event>
 6   2  0.3464723E-02  0.3667435E+03  0.7816531E-02  0.1055945E+00
       21   -1    0    0  501  502  0.00000000000E+00  0.00000000000E+00  0.24859553198E+03  0.24859553198E+03  0.00000000000E+00 0.  1.
       21   -1    0    0  505  503  0.00000000000E+00  0.00000000000E+00 -0.15817677695E+04  0.15817677695E+04  0.00000000000E+00 0.  1.
  1000006    1    1    2  501    0 -0.10212957875E+00 -0.11169509423E+03  0.42916701047E+02  0.36988869641E+03  0.35000000000E+03 0.  0.
 -1000006    1    1    2    0  503 -0.40089834019E+02  0.55547382767E+02 -0.12044952567E+04  0.12561853088E+04  0.35000000000E+03 0.  0.
       21    1    1    2  504  502  0.43132555582E+02  0.94634431409E+00 -0.30733630033E+02  0.52970453403E+02  0.00000000000E+00 0. -1.
       21    1    1    2  505  504 -0.29405919847E+01  0.55201367150E+02 -0.14086005183E+03  0.15131884291E+03  0.00000000000E+00 0. -1.
<scales pt_clust_1="13000.00000" pt_clust_2="13000.00000" pt_clust_3="43.14294" pt_clust_4="55.25808"></scales>
<clustering>
<clus scale="   43.143">  1  5  2 -1</clus>
<clus scale="   55.258">  2  6  1 -1</clus>
<clus scale="  366.743">  2  4  1 -1</clus>
<clus scale="  366.743">  1  3  2 -1</clus>
</clustering>
</event>
<event>
 5   1  0.3464723E-02  0.3940653E+03  0.7816531E-02  0.1045854E+00
       21   -1    0    0  503  502  0.00000000000E+00  0.00000000000E+00  0.50491537516E+03  0.50491537516E+03  0.00000000000E+00 0. -1.
       21   -1    0    0  504  503  0.00000000000E+00  0.00000000000E+00 -0.37790151838E+03  0.37790151838E+03  0.00000000000E+00 0. -1.
  1000006    1    1    2  501    0 -0.14644612005E+03 -0.67990890748E+02  0.74986828110E+02  0.39267321234E+03  0.35000000000E+03 0.  0.
 -1000006    1    1    2    0  502  0.17247080259E+03  0.10234825129E+03  0.10980047971E+03  0.41806397552E+03  0.35000000000E+03 0.  0.
       21    1    1    2  504  501 -0.26024682538E+02 -0.34357360539E+02 -0.57773451037E+02  0.72079705667E+02  0.00000000000E+00 0.  1.
<scales pt_clust_1="13000.00000" pt_clust_2="13000.00000" pt_clust_3="43.10119"></scales>
<clustering>
<clus scale="   43.101">  2  5  1 -1</clus>
<clus scale="  394.065">  2  3  1 -1</clus>
<clus scale="  394.065">  1  3  2 -1</clus>
</clustering>
</event>
<event>
 4   0  0.3464723E-02  0.3550806E+03  0.7816531E-02  0.1060549E+00
       21   -1    0    0  503  502  0.00000000000E+00  0.00000000000E+00  0.71599142642E+03  0.71599142642E+03  0.00000000000E+00 0.  1.
       21   -1    0    0  501  503  0.00000000000E+00  0.00000000000E+00 -0.23685487293E+03  0.23685487293E+03  0.00000000000E+00 0.  1.
  1000006    1    1    2  501    0 -0.21266880853E+02 -0.55946217512E+02 -0.17339746752E+01  0.35508487175E+03  0.35000000000E+03 0.  0.
 -1000006    1    1    2    0  502  0.21266880853E+02  0.55946217512E+02  0.48087052816E+03  0.59776142760E+03  0.35000000000E+03 0.  0.
<scales pt_clust_1="13000.00000" pt_clust_2="13000.00000"></scales>
<clustering>
<clus scale="  355.081">  2  3  1 -1</clus>
<clus scale="  355.081">  1  3  2 -1</clus>
</clustering>
</event>
<event>
 5   1  0.3464723E-02  0.3625283E+03  0.7816531E-02  0.1057587E+00
       21   -1    0    0  502  503  0.00000000000E+00  0.00000000000E+00  0.44080181493E+03  0.44080181493E+03  0.00000000000E+00 0.  1.
       -1   -1    0    0    0  501  0.00000000000E+00  0.00000000000E+00 -0.15042188179E+04  0.15042188179E+04  0.00000000000E+00 0.  1.
  1000006    1    1    2  502    0  0.10161503808E+03  0.11073669044E+02  0.25025607280E+03  0.44224014300E+03  0.35000000000E+03 0.  0.
 -1000006    1    1    2    0  501 -0.68908072087E+02  0.40985967452E+02 -0.25045241691E+03  0.43778371951E+03  0.35000000000E+03 0.  0.
       -1    1    1    2    0  503 -0.32706965989E+02 -0.52059636496E+02 -0.10632206589E+04  0.10649967704E+04  0.00000000000E+00 0.  1.
<scales pt_clust_1="13000.00000" pt_clust_2="13000.00000" pt_clust_3="61.48131"></scales>
<clustering>
<clus scale="   61.481">  2  5  1 -1</clus>
<clus scale="  362.528">  2  4  1 -1</clus>
<clus scale="  362.528">  1  3  2 -1</clus>
</clustering>
</event>
<event>
 5   1  0.3464723E-02  0.4568944E+03  0.7816531E-02  0.1025686E+00
       21   -1    0    0  501  502  0.00000000000E+00  0.00000000000E+00  0.25888525739E+03  0.25888525739E+03  0.00000000000E+00 0. -1.
       21   -1    0    0  502  503  0.00000000000E+00  0.00000000000E+00 -0.88260362681E+03  0.88260362681E+03  0.00000000000E+00 0. -1.
  1000006    1    1    2  501    0 -0.16059782955E+02 -0.30975957491E+03 -0.25377686204E+03  0.53208233064E+03  0.35000000000E+03 0.  0.
 -1000006    1    1    2    0  504  0.29157223073E+02  0.27376150775E+03 -0.33158414645E+03  0.55519685965E+03  0.35000000000E+03 0.  0.
       21    1    1    2  504  503 -0.13097440118E+02  0.35998067157E+02 -0.38357360933E+02  0.54209693915E+02  0.00000000000E+00 0. -1.
<scales pt_clust_1="13000.00000" pt_clust_2="13000.00000" pt_clust_3="38.30671"></scales>
<clustering>
<clus scale="   38.307">  2  5  1 -1</clus>
<clus scale="  456.894">  1  3  2 -1</clus>
<clus scale="  456.894">  1  3  2 -1</clus>
</clustering>
</event>
<event>
 5   1  0.3464723E-02  0.3776680E+03  0.7816531E-02  0.1051799E+00
       21   -1    0    0  501  503  0.00000000000E+00  0.00000000000E+00  0.26968761358E+03  0.26968761358E+03  0.00000000000E+00 0. -1.
        2   -1    0    0  503    0  0.00000000000E+00  0.00000000000E+00 -0.35588800367E+04  0.35588800367E+04  0.00000000000E+00 0. -1.
  1000006    1    1    2  501    0  0.83568239779E+02 -0.15528794848E+03 -0.10228696974E+03  0.40504397517E+03  0.35000000000E+03 0.  0.
 -1000006    1    1    2    0  502 -0.19247613088E+02  0.10490277350E+03 -0.16646306700E+03  0.40197638634E+03  0.35000000000E+03 0.  0.
        2    1    1    2  502    0 -0.64320626691E+02  0.50385174978E+02 -0.30204423864E+04  0.30215472888E+04  0.00000000000E+00 0. -1.
<scales pt_clust_1="13000.00000" pt_clust_2="13000.00000" pt_clust_3="81.70562"></scales>
<clustering>
<clus scale="   81.706">  2  5  1 -1</clus>
<clus scale="  377.668">  1  3  2 -1</clus>
<clus scale="  377.668">  1  3  2 -1</clus>
</clustering>
</event>
<event>
 5   1  0.3464723E-02  0.4596209E+03  0.7816531E-02  0.1024891E+00
       21   -1    0    0  504  502  0.00000000000E+00  0.00000000000E+00  0.66835122450E+03  0.66835122450E+03  0.00000000000E+00 0.  1.
       21   -1    0    0  501  503  0.00000000000E+00  0.00000000000E+00 -0.34568000448E+03  0.34568000448E+03  0.00000000000E+00 0. -1.
  1000006    1    1    2  501    0 -0.16863918737E+03 -0.22678057133E+03  0.12521065011E+03  0.46695429107E+03  0.35000000000E+03 0.  0.
 -1000006    1    1    2    0  502  0.19186267089E+03  0.24970553619E+03  0.15967839106E+03  0.49715322372E+03  0.35000000000E+03 0.  0.
       21    1    1    2  504  503 -0.23223483521E+02 -0.22924964852E+02  0.37782178841E+02  0.49923714188E+02  0.00000000000E+00 0. -1.
<scales pt_clust_1="13000.00000" pt_clust_2="13000.00000" pt_clust_3="32.63256"></scales>
<clustering>
<clus scale="   32.633">  1  5  2 -1</clus>
<clus scale="  459.621">  2  3  1 -1</clus>
<clus scale="  459.621">  1  3  2 -1</clus>
</clustering>
</event>
<event>
 5   1  0.3464723E-02  0.5302127E+03  0.7816531E-02  0.1006181E+00
       21   -1    0    0  504  502  0.00000000000E+00  0.00000000000E+00  0.19857975630E+04  0.19857975630E+04  0.00000000000E+00 0.  1.
       21   -1    0    0  502  503  0.00000000000E+00  0.00000000000E+00 -0.23448851802E+03  0.23448851802E+03  0.00000000000E+00 0. -1.
  1000006    1    1    2  501    0  0.47060826712E+02 -0.38323662494E+03  0.59122653970E+03  0.78812045612E+03  0.35000000000E+03 0.  0.
 -1000006    1    1    2    0  503  0.49770501049E+01  0.40928984335E+03  0.40248705237E+03  0.67233828853E+03  0.35000000000E+03 0.  0.
       21    1    1    2  504  501 -0.52037876817E+02 -0.26053218412E+02  0.75759545287E+03  0.75982733632E+03  0.00000000000E+00 0.  1.
<scales pt_clust_1="13000.00000" pt_clust_2="13000.00000" pt_clust_3="58.19545"></scales>
<clustering>
<clus scale="   58.195">  1  5  2 -1</clus>
<clus scale="  530.213">  2  4  1 -1</clus>
<clus scale="  530.213">  1  3  2 -1</clus>
</clustering>
</event>
<event>
 5   1  0.3464723E-02  0.4187703E+03  0.7816531E-02  0.1037467E+00
       21   -1    0    0  504  502  0.00000000000E+00  0.00000000000E+00  0.21624110635E+03  0.21624110635E+03  0.00000000000E+00 0. -1.
       21   -1    0    0  501  503  0.00000000000E+00  0.00000000000E+00 -0.17369018294E+04  0.17369018294E+04  0.00000000000E+00 0. -1.
  1000006    1    1    2  501    0 -0.24360523780E+03  0.24995961349E+01 -0.12357578326E+04  0.13072670656E+04  0.35000000000E+03 0.  0.
 -1000006    1    1    2    0  502  0.21449003553E+03  0.83256192794E+02 -0.86373469544E+02  0.42766569330E+03  0.35000000000E+03 0.  0.
       21    1    1    2  504  503  0.29115202264E+02 -0.85755788929E+02 -0.19852942094E+03  0.21821017693E+03  0.00000000000E+00 0.  1.
<scales pt_clust_1="13000.00000" pt_clust_2="13000.00000" pt_clust_3="90.56352"></scales>
<clustering>
<clus scale="   90.564">  2  5  1 -1</clus>
<clus scale="  418.770">  2  3  1 -1</clus>
<clus scale="  418.770">  1  3  2 -1</clus>
</clustering>
</event>
<event>
 5   1  0.3464723E-02  0.5104989E+03  0.7816531E-02  0.1011074E+00
        1   -1    0    0  502    0  0.00000000000E+00  0.00000000000E+00  0.18276206807E+04  0.18276206807E+04  0.00000000000E+00 0. -1.
       -1   -1    0    0    0  501  0.00000000000E+00  0.00000000000E+00 -0.18240180863E+03  0.18240180863E+03  0.00000000000E+00 0.  1.
  1000006    1    1    2  502    0 -0.42003121168E+01  0.36032493171E+03  0.11389965081E+04  0.12448553107E+04  0.35000000000E+03 0.  0.
 -1000006    1    1    2    0  503  0.18300955429E+02 -0.39568588605E+03  0.49798574866E+03  0.72621763354E+03  0.35000000000E+03 0.  0.
       21    1    1    2  503  501 -0.14100643312E+02  0.35360954343E+02  0.82366152968E+01  0.38949545125E+02  0.00000000000E+00 0.  1.
<scales pt_clust_1="13000.00000" pt_clust_2="13000.00000" pt_clust_3="38.06869"></scales>
<clustering>
<clus scale="   38.069">  2  5  1 -1</clus>
<clus scale="  914.586">  3  4 -1 -1</clus>
<clus scale="  510.499">  1  3  2 -1</clus>
</clustering>
</event>
<event>
 4   0  0.3464723E-02  0.6066346E+03  0.7816531E-02  0.9891736E-01
       21   -1    0    0  501  502  0.00000000000E+00  0.00000000000E+00  0.45972510351E+03  0.45972510351E+03  0.00000000000E+00 0. -1.
       21   -1    0    0  502  503  0.00000000000E+00  0.00000000000E+00 -0.10911877879E+04  0.10911877879E+04  0.00000000000E+00 0.  1.
  1000006    1    1    2  501    0  0.99897603336E+01  0.49538447948E+03  0.84515719190E+02  0.61249366087E+03  0.35000000000E+03 0.  0.
 -1000006    1    1    2    0  503 -0.99897603336E+01 -0.49538447948E+03 -0.71597840354E+03  0.93841923049E+03  0.35000000000E+03 0.  0.
<scales pt_clust_1="13000.00000" pt_clust_2="13000.00000"></scales>
<clustering>
<clus scale="  606.635">  1  3  2 -1</clus>
<clus scale="  606.635">  1  3  2 -1</clus>
</clustering>
</event>
<event>
 4   0  0.3464723E-02  0.3649627E+03  0.7816531E-02  0.1056636E+00
       21   -1    0    0  503  502  0.00000000000E+00  0.00000000000E+00  0.75195255571E+03  0.75195255571E+03  0.00000000000E+00 0. -1.
       21   -1    0    0  501  503  0.00000000000E+00  0.00000000000E+00 -0.19505612360E+03  0.19505612360E+03  0.00000000000E+00 0. -1.
  1000006    1    1    2  501    0  0.57556610566E+01 -0.10326986782E+03  0.13492707689E+03  0.38910552465E+03  0.35000000000E+03 0.  0.
 -1000006    1    1    2    0  502 -0.57556610566E+01  0.10326986782E+03  0.42196935523E+03  0.55790315467E+03  0.35000000000E+03 0.  0.
<scales pt_clust_1="13000.00000" pt_clust_2="13000.00000"></scales>
<clustering>
<clus scale="  364.963">  2  3  1 -1</clus>
<clus scale="  364.963">  1  3  2 -1</clus>
</clustering>
</event>
<event>
 6   2  0.3464723E-02  0.3678926E+03  0.7816531E-02  0.1055502E+00
       21   -1    0    0  502  503  0.00000000000E+00  0.00000000000E+00  0.43038256008E+03  0.43038256008E+03  0.00000000000E+00 0. -1.
        2   -1    0    0  501    0  0.00000000000E+00  0.00000000000E+00 -0.13036927819E+04  0.13036927819E+04  0.00000000000E+00 0. -1.
  1000006    1    1    2  501    0  0.10039077824E+03 -0.67338714463E+02 -0.11157335529E+04  0.11755739755E+04  0.35000000000E+03 0.  0.
 -1000006    1    1    2    0  504 -0.78096922100E+02 -0.19674499933E+02  0.87136669916E+02  0.36956598116E+03  0.35000000000E+03 0.  0.
       21    1    1    2  504  503 -0.28803675456E+02  0.57229218808E+02  0.14179231819E+03  0.15559529782E+03  0.00000000000E+00 0. -1.
        2    1    1    2  502    0  0.65098193125E+01  0.29783995589E+02  0.13494342974E+02  0.33340087478E+02  0.00000000000E+00 0. -1.
<scales pt_clust_1="13000.00000" pt_clust_2="13000.00000" pt_clust_3="73.05793" pt_clust_4="30.48711"></scales>
<clustering>
<clus scale="   30.487">  1  6  2 -1</clus>
<clus scale="   73.058">  1  5  2 -1</clus>
<clus scale="  976.667">  3  4 -1 -1</clus>
<clus scale="  367.893">  1  3  2 -1</clus>
</clustering>
</event>
<event>
 5   1  0.3464723E-02  0.5522681E+03  0.7816531E-02  0.1000970E+00
       21   -1    0    0  502  503  0.00000000000E+00  0.00000000000E+00  0.84130065775E+03  0.84130065775E+03  0.00000000000E+00 0. -1.
       -3   -1    0    0    0  501  0.00000000000E+00  0.00000000000E+00 -0.97243072767E+03  0.97243072767E+03  0.00000000000E+00 0. -1.
  1000006    1    1    2  502    0  0.17156459339E+03 -0.40065244474E+03  0.37796923250E+03  0.67477220741E+03  0.35000000000E+03 0.  0.
 -1000006    1    1    2    0  501 -0.13163311263E+03  0.39296540502E+03  0.80125270506E+02  0.54833306016E+03  0.35000000000E+03 0.  0.
       -3    1    1    2    0  503 -0.39931480759E+02  0.76870397158E+01 -0.58922457293E+03  0.59062611785E+03  0.00000000000E+00 0. -1.
<scales pt_clust_1="13000.00000" pt_clust_2="13000.00000" pt_clust_3="40.66465"></scales>
<clustering>
<clus scale="   40.665">  2  5  1 -1</clus>
<clus scale="  552.268">  1  3  2 -1</clus>
<clus scale="  552.268">  1  3  2 -1</clus>
</clustering>
</event>
<event>
 5   1  0.3464723E-02  0.3531335E+03  0.7816531E-02  0.1061336E+00
       21   -1    0    0  501  502  0.00000000000E+00  0.00000000000E+00  0.18025814683E+04  0.18025814683E+04  0.00000000000E+00 0.  1.
       21   -1    0    0  504  503  0.00000000000E+00  0.00000000000E+00 -0.46474783478E+03  0.46474783478E+03  0.00000000000E+00 0.  1.
  1000006    1    1    2  501    0 -0.40378091027E+02  0.55057336081E+02  0.94300425648E+03  0.10081759411E+04  0.35000000000E+03 0.  0.
 -1000006    1    1    2    0  503  0.30683348363E+02 -0.18458256067E+01  0.78773744467E+03  0.86253994497E+03  0.35000000000E+03 0.  0.
       21    1    1    2  504  502  0.96947426644E+01 -0.53211510474E+02 -0.39290806766E+03  0.39661341696E+03  0.00000000000E+00 0.  1.
<scales pt_clust_1="13000.00000" pt_clust_2="13000.00000" pt_clust_3="54.08746"></scales>
<clustering>
<clus scale="   54.087">  2  5  1 -1</clus>
<clus scale="  353.133">  1  3  2 -1</clus>
<clus scale="  353.133">  1  3  2 -1</clus>
</clustering>
</event>
<event>
 5   1  0.3464723E-02  0.4375945E+03  0.7816531E-02  0.1031487E+00
       21   -1    0    0  501  502  0.00000000000E+00  0.00000000000E+00  0.24867139851E+03  0.24867139851E+03  0.00000000000E+00 0.  1.
       21   -1    0    0  504  503  0.00000000000E+00  0.00000000000E+00 -0.11808590473E+04  0.11808590473E+04  0.00000000000E+00 0.  1.
  1000006    1    1    2  501    0 -0.22288173058E+03 -0.30623733242E+02 -0.42122816346E+03  0.59207030373E+03  0.35000000000E+03 0.  0.
 -1000006    1    1    2    0  503  0.29007507875E+03  0.72858319502E+02 -0.57420490088E+03  0.73597768596E+03  0.35000000000E+03 0.  0.
       21    1    1    2  504  502 -0.67193348173E+02 -0.42234586259E+02  0.63245415544E+02  0.10148245613E+03  0.00000000000E+00 0.  1.
<scales pt_clust_1="13000.00000" pt_clust_2="13000.00000" pt_clust_3="79.36439"></scales>
<clustering>
<clus scale="   79.364">  1  5  2 -1</clus>
<clus scale="  437.595">  1  3  2 -1</clus>
<clus scale="  437.595">  1  3  2 -1</clus>
</clustering>
</event>
<event>
 6   2  0.3464723E-02  0.3758298E+03  0.7816531E-02  0.1052486E+00
       21   -1    0    0  504  503  0.00000000000E+00  0.00000000000E+00  0.17969748680E+04  0.17969748680E+04  0.00000000000E+00 0. -1.
        1   -1    0    0  503    0  0.00000000000E+00  0.00000000000E+00 -0.59693062967E+03  0.59693062967E+03  0.00000000000E+00 0.  1.
  1000006    1    1    2  501    0  0.41133358882E+02 -0.13547917333E+03  0.94950044760E+03  0.10218109706E+04  0.35000000000E+03 0.  0.
 -1000006    1    1    2    0  502 -0.13044973354E+02  0.14928298924E+03  0.13351080710E+03  0.40346092478E+03  0.35000000000E+03 0.  0.
       21    1    1    2  504  501 -0.57553929390E+02  0.27106001769E+01  0.54063017444E+03  0.54369181312E+03  0.00000000000E+00 0.  1.
        1    1    1    2  502    0  0.29465543861E+02 -0.16514416091E+02 -0.42359719077E+03  0.42494178924E+03  0.00000000000E+00 0.  1.
<scales pt_clust_1="13000.00000" pt_clust_2="13000.00000" pt_clust_3="57.35004" pt_clust_4="33.77787"></scales>
<clustering>
<clus scale="   33.778">  2  6  1 -1</clus>
<clus scale="   57.350">  1  5  2 -1</clus>
<clus scale="  375.830">  1  3  2 -1</clus>
<clus scale="  375.830">  1  3  2 -1</clus>
</clustering>
</event>
<event>
 6   2  0.3464723E-02  0.5500152E+03  0.7816531E-02  0.1001490E+00
       21   -1    0    0  501  502  0.00000000000E+00  0.00000000000E+00  0.21950622496E+03  0.21950622496E+03  0.00000000000E+00 0.  1.
       21   -1    0    0  505  503  0.00000000000E+00  0.00000000000E+00 -0.20846402260E+04  0.20846402260E+04  0.00000000000E+00 0. -1.
  1000006    1    1    2  501    0  0.37075158486E+03 -0.49572150576E+02 -0.63676957384E+03  0.81724514435E+03  0.35000000000E+03 0.  0.
 -1000006    1    1    2    0  503 -0.45367813981E+03  0.71303514426E+02 -0.10631550717E+04  0.12098374900E+04  0.35000000000E+03 0.  0.
       21    1    1    2  504  502  0.13806774263E+03 -0.15671223408E+02 -0.47346736159E+02  0.14679919013E+03  0.00000000000E+00 0.  1.
       21    1    1    2  505  504 -0.55141187674E+02 -0.60601404414E+01 -0.11786261933E+03  0.13026462649E+03  0.00000000000E+00 0.  1.
<scales pt_clust_1="13000.00000" pt_clust_2="13000.00000" pt_clust_3="136.27670" pt_clust_4="55.47320"></scales>
<clustering>
<clus scale="   55.473">  2  6  1 -1</clus>
<clus scale="  136.277">  1  5  2 -1</clus>
<clus scale="  550.015">  1  3  2 -1</clus>
<clus scale="  550.015">  1  3  2 -1</clus>
</clustering>
</event>
<event>
 6   2  0.3464723E-02  0.4850263E+03  0.7816531E-02  0.1017763E+00
        2   -1    0    0  502    0  0.00000000000E+00  0.00000000000E+00  0.10403375258E+04  0.10403375258E+04  0.00000000000E+00 0.  1.
       -2   -1    0    0    0  501  0.00000000000E+00  0.00000000000E+00 -0.53647653022E+03  0.53647653022E+03  0.00000000000E+00 0. -1.
  1000006    1    1    2  502    0 -0.54784844109E+02  0.30862204670E+03  0.26361302162E+03  0.53873998554E+03  0.35000000000E+03 0.  0.
 -1000006    1    1    2    0  504  0.20797804305E+03 -0.30233268390E+03  0.47973522590E+03  0.69807292249E+03  0.35000000000E+03 0.  0.
       21    1    1    2  503  501  0.37537628708E+02  0.13381617616E+02 -0.84596444438E+02  0.93513098925E+02  0.00000000000E+00 0. -1.
       21    1    1    2  504  503 -0.19073082764E+03 -0.19670980416E+02 -0.15489080750E+03  0.24648804907E+03  0.00000000000E+00 0.  1.
<scales pt_clust_1="13000.00000" pt_clust_2="13000.00000" pt_clust_3="39.85149" pt_clust_4="174.42984"></scales>
<clustering>
<clus scale="   39.851">  2  5  1 -1</clus>
<clus scale="  174.430">  2  6  1 -1</clus>
<clus scale="  765.592">  3  4 -1 -1</clus>
<clus scale="  485.026">  1  3  2 -1</clus>
</clustering>
</event>
<event>
 5   1  0.3464723E-02  0.3787000E+03  0.7816531E-02  0.1051415E+00
        1   -1    0    0  501    0  0.00000000000E+00  0.00000000000E+00  0.15677352744E+04  0.15677352744E+04  0.00000000000E+00 0. -1.
       21   -1    0    0  502  503  0.00000000000E+00  0.00000000000E+00 -0.43795528838E+03  0.43795528838E+03  0.00000000000E+00 0. -1.
  1000006    1    1    2  501    0  0.13969114229E+03  0.12440652070E+03  0.68271742180E+02  0.40268055380E+03  0.35000000000E+03 0.  0.
 -1000006    1    1    2    0  503 -0.20713213060E+02 -0.13315328179E+03 -0.13647276315E+03  0.39910355640E+03  0.35000000000E+03 0.  0.
        1    1    1    2  502    0 -0.11897792923E+03  0.87467610942E+01  0.11979810070E+04  0.12039064526E+04  0.00000000000E+00 0. -1.
<scales pt_clust_1="13000.00000" pt_clust_2="13000.00000" pt_clust_3="119.29901"></scales>
<clustering>
<clus scale="  119.299">  1  5  2 -1</clus>
<clus scale="  378.700">  1  3  2 -1</clus>
<clus scale="  378.700">  2  3  1 -1</clus>
</clustering>
</event>
<event>
 5   1  0.3464723E-02  0.3932756E+03  0.7816531E-02  0.1046133E+00
       21   -1    0    0  501  502  0.00000000000E+00  0.00000000000E+00  0.73148882854E+03  0.73148882854E+03  0.00000000000E+00 0. -1.
       21   -1    0    0  502  503  0.00000000000E+00  0.00000000000E+00 -0.44066553239E+03  0.44066553239E+03  0.00000000000E+00 0. -1.
  1000006    1    1    2  501    0  0.12520085315E+03 -0.15095253850E+03  0.33484589709E+03  0.52257410700E+03  0.35000000000E+03 0.  0.
 -1000006    1    1    2    0  504 -0.20749420658E+03 -0.16432994066E+02  0.93537877331E+02  0.41781960647E+03  0.35000000000E+03 0.  0.
       21    1    1    2  504  503  0.82293353426E+02  0.16738553256E+03 -0.13756047826E+03  0.23176064746E+03  0.00000000000E+00 0. -1.
<scales pt_clust_1="13000.00000" pt_clust_2="13000.00000" pt_clust_3="186.52108"></scales>
<clustering>
<clus scale="  186.521">  2  5  1 -1</clus>
<clus scale="  393.276">  1  3  2 -1</clus>
<clus scale="  393.276">  1  3  2 -1</clus>
</clustering>
</event>
<event>
 6   2  0.3464723E-02  0.3518216E+03  0.7816531E-02  0.1061870E+00
        2   -1    0    0  503    0  0.00000000000E+00  0.00000000000E+00  0.35687636013E+03  0.35687636013E+03  0.00000000000E+00 0. -1.
       21   -1    0    0  504  503  0.00000000000E+00  0.00000000000E+00 -0.50571143147E+03  0.50571143147E+03  0.00000000000E+00 0. -1.
  1000006    1    1    2  501    0 -0.32148016694E+01  0.83506564033E+02 -0.95818534009E+02  0.37237732563E+03  0.35000000000E+03 0.  0.
 -1000006    1    1    2    0  502  0.16904959807E+02  0.12087154088E+02 -0.42126956959E+02  0.35313815634E+03  0.35000000000E+03 0.  0.
       21    1    1    2  504  501 -0.16463091683E+02 -0.64578421117E+02 -0.52684085301E+02  0.84953038237E+02  0.00000000000E+00 0.  1.
        2    1    1    2  502    0  0.27729335449E+01 -0.31015297004E+02  0.41794504922E+02  0.52119271391E+02  0.00000000000E+00 0. -1.
<scales pt_clust_1="13000.00000" pt_clust_2="13000.00000" pt_clust_3="68.17496" pt_clust_4="31.13901"></scales>
<clustering>
<clus scale="   31.139">  1  6  2 -1</clus>
<clus scale="   68.175">  2  5  1 -1</clus>
<clus scale="  351.822">  1  4  2 -1</clus>
<clus scale="  351.822">  2  3  1 -1</clus>
</clustering>
</event>
<event>
 5   1  0.3464723E-02  0.3629764E+03  0.7816531E-02  0.1057412E+00
       21   -1    0    0  501  502  0.00000000000E+00  0.00000000000E+00  0.27922681191E+03  0.27922681191E+03  0.00000000000E+00 0.  1.
       21   -1    0    0  502  503  0.00000000000E+00  0.00000000000E+00 -0.65935072581E+03  0.65935072581E+03  0.00000000000E+00 0.  1.
  1000006    1    1    2  501    0 -0.43589452288E+02  0.79432607372E+02 -0.21875914770E+02  0.36219902693E+03  0.35000000000E+03 0.  0.
 -1000006    1    1    2    0  504  0.81310646992E+02 -0.72549875478E+02 -0.20833132132E+03  0.42163591544E+03  0.35000000000E+03 0.  0.
       21    1    1    2  504  503 -0.37721194704E+02 -0.68827318942E+01 -0.14991667781E+03  0.15474259535E+03  0.00000000000E+00 0.  1.
<scales pt_clust_1="13000.00000" pt_clust_2="13000.00000" pt_clust_3="38.34398"></scales>
<clustering>
<clus scale="   38.344">  2  5  1 -1</clus>
<clus scale="  362.976">  1  3  2 -1</clus>
<clus scale="  362.976">  1  3  2 -1</clus>
</clustering>
</event>
<event>
 6   2  0.3464723E-02  0.3938758E+03  0.7816531E-02  0.1045921E+00
       21   -1    0    0  504  503  0.00000000000E+00  0.00000000000E+00  0.10215738334E+04  0.10215738334E+04  0.00000000000E+00 0. -1.
        2   -1    0    0  501    0  0.00000000000E+00  0.00000000000E+00 -0.14083160193E+04  0.14083160193E+04  0.00000000000E+00 0. -1.
  1000006    1    1    2  501    0 -0.21786602087E+03 -0.96454971177E+02 -0.12647692937E+03  0.44188864907E+03  0.35000000000E+03 0.  0.
 -1000006    1    1    2    0  503  0.19959324362E+03  0.13737407580E+02  0.77263783608E+03  0.87149033558E+03  0.35000000000E+03 0.  0.
       21    1    1    2  504  502 -0.34164529291E+02 -0.46458950349E+02  0.14828659336E+02  0.59544422635E+02  0.00000000000E+00 0. -1.
        2    1    1    2  502    0  0.52437306545E+02  0.12917651395E+03 -0.10477317519E+04  0.10569664454E+04  0.00000000000E+00 0. -1.
<scales pt_clust_1="13000.00000" pt_clust_2="13000.00000" pt_clust_3="57.66844" pt_clust_4="139.15175"></scales>
<clustering>
<clus scale="   57.668">  1  5  2 -1</clus>
<clus scale="  139.152">  2  6  1 -1</clus>
<clus scale="  393.876">  2  3  1 -1</clus>
<clus scale="  393.876">  1  3  2 -1</clus>
</clustering>
</event>
<event>
 5   1  0.3464723E-02  0.4169851E+03  0.7816531E-02  0.1038052E+00
       21   -1    0    0  501  502  0.00000000000E+00  0.00000000000E+00  0.51153388469E+03  0.51153388469E+03  0.00000000000E+00 0. -1.
       21   -1    0    0  504  503  0.00000000000E+00  0.00000000000E+00 -0.39488296891E+03  0.39488296891E+03  0.00000000000E+00 0. -1.
  1000006    1    1    2  501    0  0.23089570778E+03 -0.25053190597E+02  0.16910140248E+03  0.45280876156E+03  0.35000000000E+03 0.  0.
 -1000006    1    1    2    0  503 -0.21781970307E+03  0.52999859845E+02 -0.64250771000E+02  0.42057409545E+03  0.35000000000E+03 0.  0.
       21    1    1    2  504  502 -0.13076004707E+02 -0.27946669248E+02  0.11800284301E+02  0.33033996590E+02  0.00000000000E+00 0. -1.
<scales pt_clust_1="13000.00000" pt_clust_2="13000.00000" pt_clust_3="30.85447"></scales>
<clustering>
<clus scale="   30.854">  1  5  2 -1</clus>
<clus scale="  416.985">  1  3  2 -1</clus>
<clus scale="  416.985">  1  3  2 -1</clus>
</clustering>
</event>
<event>
 5   1  0.3464723E-02  0.3885378E+03  0.7816531E-02  0.1047823E+00
       21   -1    0    0  504  502  0.00000000000E+00  0.00000000000E+00  0.38765495777E+03  0.38765495777E+03  0.00000000000E+00 0. -1.
       21   -1    0    0  502  503  0.00000000000E+00  0.00000000000E+00 -0.11900689640E+04  0.11900689640E+04  0.00000000000E+00 0. -1.
  1000006    1    1    2  501    0  0.19459645964E+03  0.46497228980E+02 -0.27244511765E+03  0.48657591036E+03  0.35000000000E+03 0.  0.
 -1000006    1    1    2    0  503 -0.13451285401E+03 -0.83083373503E+02 -0.75949958911E+03  0.85107942091E+03  0.35000000000E+03 0.  0.
       21    1    1    2  504  501 -0.60083605637E+02  0.36586144522E+02  0.22953070055E+03  0.24006859048E+03  0.00000000000E+00 0. -1.
<scales pt_clust_1="13000.00000" pt_clust_2="13000.00000" pt_clust_3="70.34618"></scales>
<clustering>
<clus scale="   70.346">  1  5  2 -1</clus>
<clus scale="  388.538">  1  3  2 -1</clus>
<clus scale="  388.538">  1  3  2 -1</clus>
</clustering>
</event>
<event>
 5   1  0.3464723E-02  0.3543191E+03  0.7816531E-02  0.1060856E+00
       21   -1    0    0  501  502  0.00000000000E+00  0.00000000000E+00  0.20342367795E+03  0.20342367795E+03  0.00000000000E+00 0.  1.
       21   -1    0    0  504  503  0.00000000000E+00  0.00000000000E+00 -0.11706736592E+04  0.11706736592E+04  0.00000000000E+00 0.  1.
  1000006    1    1    2  501    0  0.10024471498E+03  0.11230703710E+02 -0.13774309221E+03  0.38942045534E+03  0.35000000000E+03 0.  0.
 -1000006    1    1    2    0  503  0.22849858519E+02  0.30133817054E+02 -0.38542928597E+03  0.52200181748E+03  0.35000000000E+03 0.  0.
       21    1    1    2  504  502 -0.12309457349E+03 -0.41364520765E+02 -0.44407760303E+03  0.46267506429E+03  0.00000000000E+00 0.  1.
<scales pt_clust_1="13000.00000" pt_clust_2="13000.00000" pt_clust_3="129.85876"></scales>
<clustering>
<clus scale="  129.859">  2  5  1 -1</clus>
<clus scale="  354.319">  1  3  2 -1</clus>
<clus scale="  354.319">  1  3  2 -1</clus>
</clustering>
</event>
<event>
 6   2  0.3464723E-02  0.3719308E+03  0.7816531E-02  0.1053957E+00
       21   -1    0    0  501  502  0.00000000000E+00  0.00000000000E+00  0.45416235417E+03  0.45416235417E+03  0.00000000000E+00 0. -1.
       21   -1    0    0  505  503  0.00000000000E+00  0.00000000000E+00 -0.16608177532E+04  0.16608177532E+04  0.00000000000E+00 0. -1.
  1000006    1    1    2  501    0  0.27410086411E+02 -0.13869139336E+03  0.17687335798E+03  0.41685824952E+03  0.35000000000E+03 0.  0.
 -1000006    1    1    2    0  503  0.14118380870E+01  0.17126533244E+03 -0.49509951569E+03  0.63004550456E+03  0.35000000000E+03 0.  0.
       21    1    1    2  504  502 -0.78976688737E+02  0.35535777128E+02  0.66636293038E+02  0.10927261491E+03  0.00000000000E+00 0.  1.
       21    1    1    2  505  504  0.50154764238E+02 -0.68109716203E+02 -0.95506553437E+03  0.95880373840E+03  0.00000000000E+00 0.  1.
<scales pt_clust_1="13000.00000" pt_clust_2="13000.00000" pt_clust_3="84.38087" pt_clust_4="84.58389"></scales>
<clustering>
<clus scale="   84.584">  2  6  1 -1</clus>
<clus scale="   84.381">  1  5  2 -1</clus>
<clus scale="  371.931">  1  3  2 -1</clus>
<clus scale="  371.931">  1  3  2 -1</clus>
</clustering>
</event>
<event>
 5   1  0.3464723E-02  0.4304473E+03  0.7816531E-02  0.1033719E+00
        2   -1    0    0  503    0  0.00000000000E+00  0.00000000000E+00  0.56289127099E+03  0.56289127099E+03  0.00000000000E+00 0. -1.
       21   -1    0    0  501  503  0.00000000000E+00  0.00000000000E+00 -0.59854722800E+03  0.59854722800E+03  0.00000000000E+00 0. -1.
  1000006    1    1    2  501    0  0.21572091347E+03  0.12502499445E+03 -0.15378891322E+03  0.45641843912E+03  0.35000000000E+03 0.  0.
 -1000006    1    1    2    0  502 -0.14254472193E+03 -0.22734913847E+03 -0.10090793270E+03  0.45242572804E+03  0.35000000000E+03 0.  0.
        2    1    1    2  502    0 -0.73176191539E+02  0.10232414402E+03  0.21904088891E+03  0.25259433182E+03  0.00000000000E+00 0. -1.
<scales pt_clust_1="13000.00000" pt_clust_2="13000.00000" pt_clust_3="125.79740"></scales>
<clustering>
<clus scale="  125.797">  1  5  2 -1</clus>
<clus scale="  430.447">  2  3  1 -1</clus>
<clus scale="  430.447">  2  3  1 -1</clus>
</clustering>
</event>
<event>
 5   1  0.3464723E-02  0.4945849E+03  0.7816531E-02  0.1015202E+00
       21   -1    0    0  504  502  0.00000000000E+00  0.00000000000E+00  0.65803806739E+03  0.65803806739E+03  0.00000000000E+00 0.  1.
       21   -1    0    0  502  503  0.00000000000E+00  0.00000000000E+00 -0.54363640420E+03  0.54363640420E+03  0.00000000000E+00 0. -1.
  1000006    1    1    2  501    0 -0.19729778458E+03 -0.24347221758E+03  0.25605833026E+03  0.53504299362E+03  0.35000000000E+03 0.  0.
 -1000006    1    1    2    0  503  0.19407558451E+03  0.30907604082E+03 -0.23084883881E+03  0.55586375839E+03  0.35000000000E+03 0.  0.
       21    1    1    2  504  501  0.32222000650E+01 -0.65603823242E+02  0.89192171755E+02  0.11076771957E+03  0.00000000000E+00 0.  1.
<scales pt_clust_1="13000.00000" pt_clust_2="13000.00000" pt_clust_3="65.68291"></scales>
<clustering>
<clus scale="   65.683">  1  5  2 -1</clus>
<clus scale="  494.585">  2  4  1 -1</clus>
<clus scale="  494.585">  1  3  2 -1</clus>
</clustering>
</event>
<event>
 4   0  0.3464723E-02  0.3628876E+03  0.7816531E-02  0.1057446E+00
       21   -1    0    0  503  502  0.00000000000E+00  0.00000000000E+00  0.30581606371E+03  0.30581606371E+03  0.00000000000E+00 0.  1.
       21   -1    0    0  501  503  0.00000000000E+00  0.00000000000E+00 -0.54543181692E+03  0.54543181692E+03  0.00000000000E+00 0.  1.
  1000006    1    1    2  501    0  0.33128058688E+02 -0.89943977461E+02 -0.31509267639E+03  0.48059419687E+03  0.35000000000E+03 0.  0.
 -1000006    1    1    2    0  502 -0.33128058688E+02  0.89943977461E+02  0.75476923178E+02  0.37065368376E+03  0.35000000000E+03 0.  0.
<scales pt_clust_1="13000.00000" pt_clust_2="13000.00000"></scales>
<clustering>
<clus scale="  362.888">  2  3  1 -1</clus>
<clus scale="  362.888">  1  3  2 -1</clus>
</clustering>
</event>
<event>
 6   2  0.3464723E-02  0.3518324E+03  0.7816531E-02  0.1061865E+00
       21   -1    0    0  504  502  0.00000000000E+00  0.00000000000E+00  0.17663788022E+04  0.17663788022E+04  0.00000000000E+00 0.  1.
       21   -1    0    0  505  503  0.00000000000E+00  0.00000000000E+00 -0.32941384078E+03  0.32941384078E+03  0.00000000000E+00 0. -1.
  1000006    1    1    2  501    0 -0.19536446419E+02 -0.64811333542E+02  0.35943399791E+03  0.50623609171E+03  0.35000000000E+03 0.  0.
 -1000006    1    1    2    0  503  0.30989049078E+02 -0.20596838255E+02  0.45209277381E+02  0.35486395938E+03  0.35000000000E+03 0.  0.
       21    1    1    2  504  501 -0.28892817502E+01  0.30814277953E+02  0.11257334505E+04  0.11261588118E+04  0.00000000000E+00 0.  1.
       21    1    1    2  505  502 -0.85633209089E+01  0.54593893844E+02 -0.93411764379E+02  0.10853378015E+03  0.00000000000E+00 0. -1.
<scales pt_clust_1="13000.00000" pt_clust_2="13000.00000" pt_clust_3="30.94944" pt_clust_4="55.62610"></scales>
<clustering>
<clus scale="   30.949">  1  5  2 -1</clus>
<clus scale="   55.626">  2  6  1 -1</clus>
<clus scale="  351.832">  2  4  1 -1</clus>
<clus scale="  351.832">  1  3  2 -1</clus>
</clustering>
</event>
<event>
 4   0  0.3464723E-02  0.3715553E+03  0.7816531E-02  0.1054100E+00
       21   -1    0    0  501  502  0.00000000000E+00  0.00000000000E+00  0.18990688874E+03  0.18990688874E+03  0.00000000000E+00 0.  1.
       21   -1    0    0  502  503  0.00000000000E+00  0.00000000000E+00 -0.10328188069E+04  0.10328188069E+04  0.00000000000E+00 0.  1.
  1000006    1    1    2  501    0  0.11882802668E+03  0.37858521532E+02 -0.88756193355E+02  0.38200920072E+03  0.35000000000E+03 0.  0.
 -1000006    1    1    2    0  503 -0.11882802668E+03 -0.37858521532E+02 -0.75415572480E+03  0.84071649492E+03  0.35000000000E+03 0.  0.
<scales pt_clust_1="13000.00000" pt_clust_2="13000.00000"></scales>
<clustering>
<clus scale="  371.555">  1  3  2 -1</clus>
<clus scale="  371.555">  1  3  2 -1</clus>
</clustering>
</event>
<event>
 6   2  0.3464723E-02  0.6383787E+03  0.7816531E-02  0.9828834E-01
       21   -1    0    0  505  502  0.00000000000E+00  0.00000000000E+00  0.71148230934E+03  0.71148230934E+03  0.00000000000E+00 0.  1.
       21   -1    0    0  501  503  0.00000000000E+00  0.00000000000E+00 -0.77843695349E+03  0.77843695349E+03  0.00000000000E+00 0. -1.
  1000006    1    1    2  501    0  0.30501205394E+03 -0.46072750956E+03 -0.19677208044E+03  0.68302374977E+03  0.35000000000E+03 0.  0.
 -1000006    1    1    2    0  502 -0.19718267413E+03  0.48962200827E+03  0.19798111842E+03  0.66355650943E+03  0.35000000000E+03 0.  0.
       21    1    1    2  504  503 -0.51266935915E+02 -0.43261906976E+02 -0.29152164614E+02  0.73141916949E+02  0.00000000000E+00 0. -1.
       21    1    1    2  505  504 -0.56562443891E+02  0.14367408269E+02 -0.39011517512E+02  0.70197086676E+02  0.00000000000E+00 0. -1.
<scales pt_clust_1="13000.00000" pt_clust_2="13000.00000" pt_clust_3="126.09434" pt_clust_4="54.68737"></scales>
<clustering>
<clus scale="   54.687">  5  6 -1 -1</clus>
<clus scale="  126.094">  2  5  1 -1</clus>
<clus scale="  638.379">  1  4  2 -1</clus>
<clus scale="  638.379">  1  3  2 -1</clus>
</clustering>
</event>
<event>
 6   2  0.3464723E-02  0.3678194E+03  0.7816531E-02  0.1055530E+00
       21   -1    0    0  501  502  0.00000000000E+00  0.00000000000E+00  0.14731931849E+04  0.14731931849E+04  0.00000000000E+00 0. -1.
       21   -1    0    0  505  503  0.00000000000E+00  0.00000000000E+00 -0.18986302289E+03  0.18986302289E+03  0.00000000000E+00 0. -1.
  1000006    1    1    2  501    0  0.41304582886E+02 -0.17748614367E+02  0.68890405821E+03  0.77402188813E+03  0.35000000000E+03 0.  0.
 -1000006    1    1    2    0  503 -0.83280221163E+02  0.11065875167E+03  0.11254611108E+03  0.39287094787E+03  0.35000000000E+03 0.  0.
       21    1    1    2  504  502  0.75050599897E+01 -0.38384096976E+02  0.31210529362E+03  0.31454630682E+03  0.00000000000E+00 0. -1.
       21    1    1    2  505  504  0.34470578287E+02 -0.54526040328E+02  0.16977469904E+03  0.18161706494E+03  0.00000000000E+00 0. -1.
<scales pt_clust_1="13000.00000" pt_clust_2="13000.00000" pt_clust_3="39.11093" pt_clust_4="70.06324"></scales>
<clustering>
<clus scale="   39.111">  1  5  2 -1</clus>
<clus scale="   70.063">  1  6  2 -1</clus>
<clus scale="  367.819">  1  3  2 -1</clus>
<clus scale="  367.819">  1  3  2 -1</clus>
</clustering>
</event>
<event>
 5   1  0.3464723E-02  0.5876465E+03  0.7816531E-02  0.9931372E-01
       21   -1    0    0  501  502  0.00000000000E+00  0.00000000000E+00  0.28837208006E+04  0.28837208006E+04  0.00000000000E+00 0. -1.
       21   -1    0    0  504  503  0.00000000000E+00  0.00000000000E+00 -0.16195995089E+03  0.16195995089E+03  0.00000000000E+00 0.  1.
  1000006    1    1    2  501    0 -0.45355136550E+03  0.39754366389E+02  0.18502004614E+04  0.19372741154E+04  0.35000000000E+03 0.  0.
 -1000006    1    1    2    0  503  0.50799467881E+03 -0.66771842675E+02  0.82247402601E+03  0.10302818042E+04  0.35000000000E+03 0.  0.
       21    1    1    2  504  502 -0.54443313308E+02  0.27017476286E+02  0.49086362262E+02  0.78124831833E+02  0.00000000000E+00 0.  1.
<scales pt_clust_1="13000.00000" pt_clust_2="13000.00000" pt_clust_3="60.77844"></scales>
<clustering>
<clus scale="   60.778">  2  5  1 -1</clus>
<clus scale="  587.647">  2  4  1 -1</clus>
<clus scale="  587.647">  1  3  2 -1</clus>
</clustering>
</event>
<event>
 6   2  0.3464723E-02  0.3612747E+03  0.7816531E-02  0.1058080E+00
       21   -1    0    0  504  503  0.00000000000E+00  0.00000000000E+00  0.13218376365E+04  0.13218376365E+04  0.00000000000E+00 0. -1.
        2   -1    0    0  503    0  0.00000000000E+00  0.00000000000E+00 -0.54710539338E+03  0.54710539338E+03  0.00000000000E+00 0. -1.
  1000006    1    1    2  501    0 -0.19407219330E+01 -0.18007308542E+03  0.12340389524E+03  0.41250285315E+03  0.35000000000E+03 0.  0.
 -1000006    1    1    2    0  502 -0.92325610206E+02 -0.44991150009E+02 -0.29474492102E+01  0.36476966614E+03  0.35000000000E+03 0.  0.
       21    1    1    2  504  501 -0.33077995454E+02 -0.84026419178E+01  0.79162318699E+03  0.79235852262E+03  0.00000000000E+00 0. -1.
        2    1    1    2  502    0  0.12734432759E+03  0.23346687735E+03 -0.13734738996E+03  0.29931198793E+03  0.00000000000E+00 0. -1.
<scales pt_clust_1="13000.00000" pt_clust_2="13000.00000" pt_clust_3="34.12855" pt_clust_4="262.41814"></scales>
<clustering>
<clus scale="   34.129">  1  5  2 -1</clus>
<clus scale="  262.418">  2  6  1 -1</clus>
<clus scale="  361.275">  2  4  1 -1</clus>
<clus scale="  361.275">  1  3  2 -1</clus>
</clustering>
</event>
<event>
 5   1  0.3464723E-02  0.4714194E+03  0.7816531E-02  0.1021520E+00
        1   -1    0    0  502    0  0.00000000000E+00  0.00000000000E+00  0.32215364635E+04  0.32215364635E+04  0.00000000000E+00 0.  1.
       -1   -1    0    0    0  501  0.00000000000E+00  0.00000000000E+00 -0.99156821644E+02  0.99156821644E+02  0.00000000000E+00 0. -1.
  1000006    1    1    2  502    0 -0.26149136362E+03 -0.14343927385E+03  0.15255937055E+04  0.15933890651E+04  0.35000000000E+03 0.  0.
 -1000006    1    1    2    0  503  0.29196172956E+03  0.16259223261E+03  0.16157235883E+04  0.16866358823E+04  0.35000000000E+03 0.  0.
       21    1    1    2  503  501 -0.30470365937E+02 -0.19152958756E+02 -0.18937651987E+02  0.40668337711E+02  0.00000000000E+00 0. -1.
<scales pt_clust_1="13000.00000" pt_clust_2="13000.00000" pt_clust_3="35.98999"></scales>
<clustering>
<clus scale="   35.990">  2  5  1 -1</clus>
<clus scale="  722.422">  3  4 -1 -1</clus>
<clus scale="  471.419">  1  3  2 -1</clus>
</clustering>
</event>
<event>
 5   1  0.3464723E-02  0.3738581E+03  0.7816531E-02  0.1053227E+00
       21   -1    0    0  501  502  0.00000000000E+00  0.00000000000E+00  0.10065630688E+04  0.10065630688E+04  0.00000000000E+00 0. -1.
       21   -1    0    0  502  503  0.00000000000E+00  0.00000000000E+00 -0.24812987121E+03  0.24812987121E+03  0.00000000000E+00 0. -1.
  1000006    1    1    2  501    0 -0.17127952184E+03  0.78094230384E+02  0.49651790731E+03  0.63597595528E+03  0.35000000000E+03 0.  0.
 -1000006    1    1    2    0  504  0.76314005105E+02  0.56230139303E+02  0.27292791955E+03  0.45384502334E+03  0.35000000000E+03 0.  0.
       21    1    1    2  504  503  0.94965516734E+02 -0.13432436969E+03 -0.11012629232E+02  0.16487196142E+03  0.00000000000E+00 0. -1.
<scales pt_clust_1="13000.00000" pt_clust_2="13000.00000" pt_clust_3="164.50376"></scales>
<clustering>
<clus scale="  164.504">  2  5  1 -1</clus>
<clus scale="  373.858">  2  4  1 -1</clus>
<clus scale="  373.858">  1  3  2 -1</clus>
</clustering>
</event>
<event>
 5   1  0.3464723E-02  0.4386301E+03  0.7816531E-02  0.1031168E+00
       21   -1    0    0  504  502  0.00000000000E+00  0.00000000000E+00  0.70587054412E+03  0.70587054412E+03  0.00000000000E+00 0. -1.
       21   -1    0    0  501  503  0.00000000000E+00  0.00000000000E+00 -0.55797834288E+03  0.55797834288E+03  0.00000000000E+00 0. -1.
  1000006    1    1    2  501    0  0.18388176379E+03  0.15355570272E+03 -0.24730172034E+03  0.49096842849E+03  0.35000000000E+03 0.  0.
 -1000006    1    1    2    0  502 -0.22513849850E+03 -0.14961413372E+03  0.49562090727E+03  0.66423777087E+03  0.35000000000E+03 0.  0.
       21    1    1    2  504  503  0.41256734716E+02 -0.39415689915E+01 -0.10042698569E+03  0.10864268765E+03  0.00000000000E+00 0. -1.
<scales pt_clust_1="13000.00000" pt_clust_2="13000.00000" pt_clust_3="41.44459"></scales>
<clustering>
<clus scale="   41.445">  2  5  1 -1</clus>
<clus scale="  438.630">  2  3  1 -1</clus>
<clus scale="  438.630">  1  3  2 -1</clus>
</clustering>
</event>
<event>
 4   0  0.3464723E-02  0.3739293E+03  0.7816531E-02  0.1053201E+00
       21   -1    0    0  501  502  0.00000000000E+00  0.00000000000E+00  0.15282598898E+03  0.15282598898E+03  0.00000000000E+00 0. -1.
       21   -1    0    0  502  503  0.00000000000E+00  0.00000000000E+00 -0.92072012438E+03  0.92072012438E+03  0.00000000000E+00 0. -1.
  1000006    1    1    2  501    0 -0.11243262301E+03 -0.68425290190E+02 -0.34133299843E+03  0.50629174482E+03  0.35000000000E+03 0.  0.
 -1000006    1    1    2    0  503  0.11243262301E+03  0.68425290190E+02 -0.42656113698E+03  0.56725436855E+03  0.35000000000E+03 0.  0.
<scales pt_clust_1="13000.00000" pt_clust_2="13000.00000"></scales>
<clustering>
<clus scale="  373.929">  1  3  2 -1</clus>
<clus scale="  373.929">  1  3  2 -1</clus>
</clustering>
</event>
<event>
 4   0  0.3464723E-02  0.3533462E+03  0.7816531E-02  0.1061250E+00
       21   -1    0    0  501  502  0.00000000000E+00  0.00000000000E+00  0.25830458899E+03  0.25830458899E+03  0.00000000000E+00 0.  1.
       21   -1    0    0  502  503  0.00000000000E+00  0.00000000000E+00 -0.57518727713E+03  0.57518727713E+03  0.00000000000E+00 0.  1.
  1000006    1    1    2  501    0 -0.48281699357E+02 -0.47366150528E+01  0.80752832744E+01  0.35343849283E+03  0.35000000000E+03 0.  0.
 -1000006    1    1    2    0  503  0.48281699357E+02  0.47366150528E+01 -0.32495797142E+03  0.48005337329E+03  0.35000000000E+03 0.  0.
<scales pt_clust_1="13000.00000" pt_clust_2="13000.00000"></scales>
<clustering>
<clus scale="  353.346">  1  3  2 -1</clus>
<clus scale="  353.346">  1  3  2 -1</clus>
</clustering>
</event>
<event>
 6   2  0.3464723E-02  0.5307560E+03  0.7816531E-02  0.1006049E+00
       21   -1    0    0  505  502  0.00000000000E+00  0.00000000000E+00  0.74652805756E+03  0.74652805756E+03  0.00000000000E+00 0. -1.
       21   -1    0    0  501  503  0.00000000000E+00  0.00000000000E+00 -0.96974475146E+03  0.96974475146E+03  0.00000000000E+00 0. -1.
  1000006    1    1    2  501    0 -0.41406183746E+03 -0.18989094887E+03 -0.52870327613E+03  0.78072590061E+03  0.35000000000E+03 0.  0.
 -1000006    1    1    2    0  504  0.27730535906E+03  0.13256178425E+03 -0.61094390041E+02  0.46979081867E+03  0.35000000000E+03 0.  0.
       21    1    1    2  504  502  0.32729717733E+02  0.72422516118E+01  0.34704259619E+03  0.34865778093E+03  0.00000000000E+00 0. -1.
       21    1    1    2  505  503  0.10402676066E+03  0.50086913006E+02  0.19538376073E+02  0.11709830881E+03  0.00000000000E+00 0. -1.
<scales pt_clust_1="13000.00000" pt_clust_2="13000.00000" pt_clust_3="33.52141" pt_clust_4="121.05569"></scales>
<clustering>
<clus scale="   33.521">  1  5  2 -1</clus>
<clus scale="  121.056">  1  6  2 -1</clus>
<clus scale="  530.756">  2  3  1 -1</clus>
<clus scale="  530.756">  1  3  2 -1</clus>
</clustering>
</event>
<event>
 5   1  0.3464723E-02  0.3566657E+03  0.7816531E-02  0.1059912E+00
       21   -1    0    0  504  502  0.00000000000E+00  0.00000000000E+00  0.35400946552E+04  0.35400946552E+04  0.00000000000E+00 0.  1.
       21   -1    0    0  501  503  0.00000000000E+00  0.00000000000E+00 -0.80710641750E+02  0.80710641750E+02  0.00000000000E+00 0.  1.
  1000006    1    1    2  501    0 -0.97289104067E+00  0.83031972297E+02  0.99013786185E+03  0.10534553813E+04  0.35000000000E+03 0.  0.
 -1000006    1    1    2    0  502 -0.15522000582E+03  0.15656668904E+03  0.13362302833E+04  0.13987915314E+04  0.35000000000E+03 0.  0.
       21    1    1    2  504  503  0.15619289686E+03 -0.23959866134E+03  0.11330158682E+04  0.11685583842E+04  0.00000000000E+00 0.  1.
<scales pt_clust_1="13000.00000" pt_clust_2="13000.00000" pt_clust_3="286.01353"></scales>
<clustering>
<clus scale="  286.014">  1  5  2 -1</clus>
<clus scale="  356.666">  2  3  1 -1</clus>
<clus scale="  356.666">  1  3  2 -1</clus>
</clustering>
</event>
<event>
 6   2  0.3464723E-02  0.3711291E+03  0.7816531E-02  0.1054262E+00
       21   -1    0    0  501  502  0.00000000000E+00  0.00000000000E+00  0.80797745147E+03  0.80797745147E+03  0.00000000000E+00 0. -1.
       21   -1    0    0  504  503  0.00000000000E+00  0.00000000000E+00 -0.32651116821E+03  0.32651116821E+03  0.00000000000E+00 0. -1.
  1000006    1    1    2  501    0  0.12114478526E+03 -0.81345164625E+02  0.14952667003E+03  0.40761663344E+03  0.35000000000E+03 0.  0.
 -1000006    1    1    2    0  503 -0.11868252969E+03 -0.12942686704E+03  0.98135427005E+02  0.40369223277E+03  0.35000000000E+03 0.  0.
       21    1    1    2  504  505 -0.75384873423E+00  0.16916379392E+03  0.13660250463E+03  0.21743321212E+03  0.00000000000E+00 0. -1.
       21    1    1    2  505  502 -0.17084068410E+01  0.41608237737E+02  0.97201681603E+02  0.10574654135E+03  0.00000000000E+00 0. -1.
<scales pt_clust_1="13000.00000" pt_clust_2="13000.00000" pt_clust_3="223.11601" pt_clust_4="36.29002"></scales>
<clustering>
<clus scale="   36.290">  5  6 -1 -1</clus>
<clus scale="  223.116">  1  5  2 -1</clus>
<clus scale="  371.129">  2  4  1 -1</clus>
<clus scale="  371.129">  1  3  2 -1</clus>
</clustering>
</event>
<event>
 5   1  0.3464723E-02  0.3594340E+03  0.7816531E-02  0.1058808E+00
       21   -1    0    0  504  502  0.00000000000E+00  0.00000000000E+00  0.69908752801E+03  0.69908752801E+03  0.00000000000E+00 0.  1.
       21   -1    0    0  502  503  0.00000000000E+00  0.00000000000E+00 -0.65030653759E+03  0.65030653759E+03  0.00000000000E+00 0.  1.
  1000006    1    1    2  501    0  0.13249934644E+03  0.66656506761E+02 -0.51955468692E+01  0.38016596430E+03  0.35000000000E+03 0.  0.
 -1000006    1    1    2    0  503  0.30663875508E+02 -0.85723677631E+02 -0.36827076317E+03  0.51615131229E+03  0.35000000000E+03 0.  0.
       21    1    1    2  504  501 -0.16316322195E+03  0.19067170870E+02  0.42224730046E+03  0.45307678902E+03  0.00000000000E+00 0.  1.
<scales pt_clust_1="13000.00000" pt_clust_2="13000.00000" pt_clust_3="164.27353"></scales>
<clustering>
<clus scale="  164.274">  1  5  2 -1</clus>
<clus scale="  359.434">  2  4  1 -1</clus>
<clus scale="  359.434">  1  3  2 -1</clus>
</clustering>
</event>
<event>
 6   2  0.3464723E-02  0.4531507E+03  0.7816531E-02  0.1026787E+00
        2   -1    0    0  503    0  0.00000000000E+00  0.00000000000E+00  0.23305839040E+04  0.23305839040E+04  0.00000000000E+00 0.  1.
        2   -1    0    0  501    0  0.00000000000E+00  0.00000000000E+00 -0.15111063149E+04  0.15111063149E+04  0.00000000000E+00 0.  1.
  1000006    1    1    2  501    0 -0.29005421275E+03  0.82701843248E+02  0.60471054186E+02  0.46596973035E+03  0.35000000000E+03 0.  0.
 -1000006    1    1    2    0  502  0.19319638212E+03 -0.24601324580E+03  0.33727042180E+03  0.57801271318E+03  0.35000000000E+03 0.  0.
        2    1    1    2  502    0  0.18278349673E+02  0.66895952814E+02  0.16057158314E+04  0.16072126486E+04  0.00000000000E+00 0.  1.
        2    1    1    2  503    0  0.78579480956E+02  0.96415449739E+02 -0.11839797183E+04  0.11904951269E+04  0.00000000000E+00 0.  1.
<scales pt_clust_1="13000.00000" pt_clust_2="13000.00000" pt_clust_3="69.34815" pt_clust_4="124.66647"></scales>
<clustering>
<clus scale="   69.348">  1  5  2 -1</clus>
<clus scale="  124.666">  2  6  1 -1</clus>
<clus scale="  453.151">  2  3  1 -1</clus>
<clus scale="  453.151">  1  3  2 -1</clus>
</clustering>
</event>
<event>
 5   1  0.3464723E-02  0.3542386E+03  0.7816531E-02  0.1060889E+00
       21   -1    0    0  502  503  0.00000000000E+00  0.00000000000E+00  0.24752507993E+03  0.24752507993E+03  0.00000000000E+00 0. -1.
        2   -1    0    0  501    0  0.00000000000E+00  0.00000000000E+00 -0.57627099052E+03  0.57627099052E+03  0.00000000000E+00 0. -1.
  1000006    1    1    2  501    0  0.27144586302E+02 -0.31961735901E+02 -0.13999784183E+03  0.37928587746E+03  0.35000000000E+03 0.  0.
 -1000006    1    1    2    0  503 -0.61731278490E+02  0.31594809168E+02 -0.13686200200E+03  0.38215205129E+03  0.35000000000E+03 0.  0.
        2    1    1    2  502    0  0.34586692188E+02  0.36692673233E+00 -0.51886066767E+02  0.62358141700E+02  0.00000000000E+00 0. -1.
<scales pt_clust_1="13000.00000" pt_clust_2="13000.00000" pt_clust_3="34.58864"></scales>
<clustering>
<clus scale="   34.589">  2  5  1 -1</clus>
<clus scale="  354.239">  2  3  1 -1</clus>
<clus scale="  354.239">  1  3  2 -1</clus>
</clustering>
</event>
<event>
 4   0  0.3464723E-02  0.4467953E+03  0.7816531E-02  0.1028682E+00
       21   -1    0    0  501  502  0.00000000000E+00  0.00000000000E+00  0.62875030039E+03  0.62875030039E+03  0.00000000000E+00 0.  1.
       21   -1    0    0  502  503  0.00000000000E+00  0.00000000000E+00 -0.31939023684E+03  0.31939023684E+03  0.00000000000E+00 0.  1.
  1000006    1    1    2  501    0 -0.19561027078E+03 -0.19713626408E+03  0.19118314269E+03  0.48598053325E+03  0.35000000000E+03 0.  0.
 -1000006    1    1    2    0  503  0.19561027078E+03  0.19713626408E+03  0.11817692087E+03  0.46216000398E+03  0.35000000000E+03 0.  0.
<scales pt_clust_1="13000.00000" pt_clust_2="13000.00000"></scales>
<clustering>
<clus scale="  446.795">  1  3  2 -1</clus>
<clus scale="  446.795">  1  3  2 -1</clus>
</clustering>
</event>
<event>
 5   1  0.3464723E-02  0.5056637E+03  0.7816531E-02  0.1012311E+00
       21   -1    0    0  504  502  0.00000000000E+00  0.00000000000E+00  0.12676115274E+04  0.12676115274E+04  0.00000000000E+00 0. -1.
       21   -1    0    0  501  503  0.00000000000E+00  0.00000000000E+00 -0.45475642166E+03  0.45475642166E+03  0.00000000000E+00 0. -1.
  1000006    1    1    2  501    0  0.27524558509E+03 -0.26187438590E+03 -0.17253508237E+03  0.54461608565E+03  0.35000000000E+03 0.  0.
 -1000006    1    1    2    0  502 -0.19001820510E+03  0.25731146721E+03  0.51640489404E+03  0.70106356631E+03  0.35000000000E+03 0.  0.
       21    1    1    2  504  503 -0.85227379991E+02  0.45629186881E+01  0.46898529410E+03  0.47668829712E+03  0.00000000000E+00 0. -1.
<scales pt_clust_1="13000.00000" pt_clust_2="13000.00000" pt_clust_3="85.34944"></scales>
<clustering>
<clus scale="   85.349">  1  5  2 -1</clus>
<clus scale="  505.664">  2  3  1 -1</clus>
<clus scale="  505.664">  1  3  2 -1</clus>
</clustering>
</event>
<event>
 6   2  0.3464723E-02  0.4465684E+03  0.7816531E-02  0.1028750E+00
       21   -1    0    0  501  502  0.00000000000E+00  0.00000000000E+00  0.88423068637E+03  0.88423068637E+03  0.00000000000E+00 0. -1.
       21   -1    0    0  505  503  0.00000000000E+00  0.00000000000E+00 -0.49057164380E+03  0.49057164380E+03  0.00000000000E+00 0. -1.
  1000006    1    1    2  501    0 -0.29216941937E+03  0.18348395445E+02  0.34191608355E+03  0.57018088483E+03  0.35000000000E+03 0.  0.
 -1000006    1    1    2    0  504  0.25912396133E+03  0.48676181341E+01  0.20393118396E+03  0.48089172257E+03  0.35000000000E+03 0.  0.
       21    1    1    2  504  503 -0.50825560098E+02  0.19807061062E+02 -0.20742365896E+03  0.21447641251E+03  0.00000000000E+00 0. -1.
       21    1    1    2  505  502  0.83871018136E+02 -0.43023074642E+02  0.55235434013E+02  0.10925331027E+03  0.00000000000E+00 0.  1.
<scales pt_clust_1="13000.00000" pt_clust_2="13000.00000" pt_clust_3="54.54867" pt_clust_4="89.02234"></scales>
<clustering>
<clus scale="   54.549">  2  5  1 -1</clus>
<clus scale="   89.022">  2  6  1 -1</clus>
<clus scale="  446.568">  2  4  1 -1</clus>
<clus scale="  446.568">  1  3  2 -1</clus>
</clustering>
</event>
<event>
 6   2  0.3464723E-02  0.3823290E+03  0.7816531E-02  0.1050076E+00
        2   -1    0    0  504    0  0.00000000000E+00  0.00000000000E+00  0.14757470846E+04  0.14757470846E+04  0.00000000000E+00 0. -1.
       21   -1    0    0  501  503  0.00000000000E+00  0.00000000000E+00 -0.57135905048E+03  0.57135905048E+03  0.00000000000E+00 0. -1.
  1000006    1    1    2  501    0 -0.11291020317E+03 -0.88977423996E+02 -0.22820473745E+03  0.44186321204E+03  0.35000000000E+03 0.  0.
 -1000006    1    1    2    0  502  0.58150692880E+02  0.17822974685E+03 -0.64610710863E+02  0.40227091580E+03  0.35000000000E+03 0.  0.
       21    1    1    2  504  503  0.28358421426E+02 -0.29029455300E+02  0.23131884356E+03  0.23485169091E+03  0.00000000000E+00 0. -1.
        2    1    1    2  502    0  0.26401088866E+02 -0.60222867549E+02  0.96588463891E+03  0.96812031636E+03  0.00000000000E+00 0. -1.
<scales pt_clust_1="13000.00000" pt_clust_2="13000.00000" pt_clust_3="40.58213" pt_clust_4="95.95400"></scales>
<clustering>
<clus scale="   40.582">  1  5  2 -1</clus>
<clus scale="   95.954">  1  6  2 -1</clus>
<clus scale="  382.329">  2  3  1 -1</clus>
<clus scale="  382.329">  2  3  1 -1</clus>
</clustering>
</event>
<event>
 6   2  0.3464723E-02  0.3827312E+03  0.7816531E-02  0.1049929E+00
       21   -1    0    0  504  503  0.00000000000E+00  0.00000000000E+00  0.24698987355E+03  0.24698987355E+03  0.00000000000E+00 0. -1.
        1   -1    0    0  501    0  0.00000000000E+00  0.00000000000E+00 -0.18339110165E+04  0.18339110165E+04  0.00000000000E+00 0.  1.
  1000006    1    1    2  501    0  0.18063933608E+03 -0.56897734464E+02 -0.30760271605E+03  0.50297848150E+03  0.35000000000E+03 0.  0.
 -1000006    1    1    2    0  503 -0.66915814607E+02  0.14047388093E+03 -0.10930052948E+03  0.39831801768E+03  0.35000000000E+03 0.  0.
       21    1    1    2  504  502 -0.72226118918E+02 -0.58917017917E+02 -0.56234819542E+03  0.57002045590E+03  0.00000000000E+00 0.  1.
        1    1    1    2  502    0 -0.41497402554E+02 -0.24659128547E+02 -0.60766970205E+03  0.60958393501E+03  0.00000000000E+00 0.  1.
<scales pt_clust_1="13000.00000" pt_clust_2="13000.00000" pt_clust_3="36.74139" pt_clust_4="150.08211"></scales>
<clustering>
<clus scale="   36.741">  5  6 -1 -1</clus>
<clus scale="  150.082">  2  5  1 -1</clus>
<clus scale="  382.731">  1  4  2 -1</clus>
<clus scale="  382.731">  1  3  2 -1</clus>
</clustering>
</event>
<event>
 6   2  0.3464723E-02  0.3512888E+03  0.7816531E-02  0.1062087E+00
        1   -1    0    0  501    0  0.00000000000E+00  0.00000000000E+00  0.28960554661E+04  0.28960554661E+04  0.00000000000E+00 0.  1.
        2   -1    0    0  503    0  0.00000000000E+00  0.00000000000E+00 -0.28139033886E+03  0.28139033886E+03  0.00000000000E+00 0. -1.
  1000006    1    1    2  501    0  0.14724530357E+03  0.70667971930E+02  0.11807815403E+04  0.12423446332E+04  0.35000000000E+03 0.  0.
 -1000006    1    1    2    0  502  0.54980182490E+02  0.84903852124E+02  0.26237535044E+03  0.44896804907E+03  0.35000000000E+03 0.  0.
        2    1    1    2  502    0 -0.49721671241E+02 -0.48021451014E+02 -0.14279563822E+03  0.15864708835E+03  0.00000000000E+00 0. -1.
        1    1    1    2  503    0 -0.15250381482E+03 -0.10755037304E+03  0.13143038748E+04  0.13274860344E+04  0.00000000000E+00 0.  1.
<scales pt_clust_1="13000.00000" pt_clust_2="13000.00000" pt_clust_3="69.12528" pt_clust_4="190.05958"></scales>
<clustering>
<clus scale="   69.125">  2  5  1 -1</clus>
<clus scale="  190.060">  1  6  2 -1</clus>
<clus scale="  351.289">  1  3  2 -1</clus>
<clus scale="  351.289">  2  3  1 -1</clus>
</clustering>
</event>
<event>
 6   2  0.3464723E-02  0.4042915E+03  0.7816531E-02  0.1042304E+00
       21   -1    0    0  502  503  0.00000000000E+00  0.00000000000E+00  0.53805669449E+03  0.53805669449E+03  0.00000000000E+00 0.  1.
       -1   -1    0    0    0  501  0.00000000000E+00  0.00000000000E+00 -0.28675809159E+04  0.28675809159E+04  0.00000000000E+00 0.  1.
  1000006    1    1    2  502    0 -0.20469083916E+03 -0.30402820744E+02  0.26399686104E+03  0.48478553380E+03  0.35000000000E+03 0.  0.
 -1000006    1    1    2    0  501  0.11111030335E+03  0.40052103739E+02 -0.14703706660E+03  0.39757963917E+03  0.35000000000E+03 0.  0.
       21    1    1    2  504  503 -0.65662785605E+02 -0.59072553549E+02 -0.19351217355E+02  0.90419232519E+02  0.00000000000E+00 0.  1.
       -1    1    1    2    0  504  0.15924332142E+03  0.49423270554E+02 -0.24271327985E+04  0.24328532049E+04  0.00000000000E+00 0.  1.
<scales pt_clust_1="13000.00000" pt_clust_2="13000.00000" pt_clust_3="88.32422" pt_clust_4="166.28014"></scales>
<clustering>
<clus scale="   88.324">  1  5  2 -1</clus>
<clus scale="  166.280">  2  6  1 -1</clus>
<clus scale="  404.291">  1  3  2 -1</clus>
<clus scale="  404.291">  1  3  2 -1</clus>
</clustering>
</event>
<event>
 5   1  0.3464723E-02  0.3578388E+03  0.7816531E-02  0.1059443E+00
       21   -1    0    0  504  502  0.00000000000E+00  0.00000000000E+00  0.17300541608E+04  0.17300541608E+04  0.00000000000E+00 0.  1.
       21   -1    0    0  502  503  0.00000000000E+00  0.00000000000E+00 -0.87300344374E+02  0.87300344374E+02  0.00000000000E+00 0.  1.
  1000006    1    1    2  501    0  0.33264851745E+02  0.81865780051E+02  0.96199952642E+03  0.10274977592E+04  0.35000000000E+03 0.  0.
 -1000006    1    1    2    0  503 -0.43530747075E+02 -0.51642343321E+02  0.55111429168E+03  0.65634504649E+03  0.35000000000E+03 0.  0.
       21    1    1    2  504  501  0.10265895330E+02 -0.30223436731E+02  0.12963999829E+03  0.13351169945E+03  0.00000000000E+00 0. -1.
<scales pt_clust_1="13000.00000" pt_clust_2="13000.00000" pt_clust_3="31.91935"></scales>
<clustering>
<clus scale="   31.919">  1  5  2 -1</clus>
<clus scale="  357.839">  1  3  2 -1</clus>
<clus scale="  357.839">  1  3  2 -1</clus>
</clustering>
</event>
<event>
 4   0  0.3464723E-02  0.4114139E+03  0.7816531E-02  0.1039898E+00
       21   -1    0    0  501  502  0.00000000000E+00  0.00000000000E+00  0.10277813787E+04  0.10277813787E+04  0.00000000000E+00 0.  1.
       21   -1    0    0  502  503  0.00000000000E+00  0.00000000000E+00 -0.21073004679E+03  0.21073004679E+03  0.00000000000E+00 0.  1.
  1000006    1    1    2  501    0 -0.18975749105E+03  0.10369889557E+03  0.69798848602E+03  0.81021558425E+03  0.35000000000E+03 0.  0.
 -1000006    1    1    2    0  503  0.18975749105E+03 -0.10369889557E+03  0.11906284590E+03  0.42829584124E+03  0.35000000000E+03 0.  0.
<scales pt_clust_1="13000.00000" pt_clust_2="13000.00000"></scales>
<clustering>
<clus scale="  411.414">  1  3  2 -1</clus>
<clus scale="  411.414">  1  3  2 -1</clus>
</clustering>
</event>
<event>
 4   0  0.3464723E-02  0.3923946E+03  0.7816531E-02  0.1046445E+00
       21   -1    0    0  501  502  0.00000000000E+00  0.00000000000E+00  0.81242625823E+03  0.81242625823E+03  0.00000000000E+00 0. -1.
       21   -1    0    0  502  503  0.00000000000E+00  0.00000000000E+00 -0.21649223173E+03  0.21649223173E+03  0.00000000000E+00 0. -1.
  1000006    1    1    2  501    0 -0.68808737633E+02 -0.16352017866E+03  0.47954525766E+03  0.61962661769E+03  0.35000000000E+03 0.  0.
 -1000006    1    1    2    0  503  0.68808737633E+02  0.16352017866E+03  0.11638876884E+03  0.40929187228E+03  0.35000000000E+03 0.  0.
<scales pt_clust_1="13000.00000" pt_clust_2="13000.00000"></scales>
<clustering>
<clus scale="  392.395">  1  3  2 -1</clus>
<clus scale="  392.395">  1  3  2 -1</clus>
</clustering>
</event>
<event>
 5   1  0.3464723E-02  0.7081377E+03  0.7816531E-02  0.9703416E-01
       21   -1    0    0  501  502  0.00000000000E+00  0.00000000000E+00  0.11733636517E+04  0.11733636517E+04  0.00000000000E+00 0.  1.
       21   -1    0    0  504  503  0.00000000000E+00  0.00000000000E+00 -0.59833636455E+03  0.59833636455E+03  0.00000000000E+00 0. -1.
  1000006    1    1    2  501    0  0.12750440040E+03  0.60934524011E+03  0.73825668718E+03  0.10271718113E+04  0.35000000000E+03 0.  0.
 -1000006    1    1    2    0  503 -0.13449536992E+03 -0.58011708601E+03 -0.13606045392E+03  0.70401511712E+03  0.35000000000E+03 0.  0.
       21    1    1    2  504  502  0.69909695206E+01 -0.29228154091E+02 -0.27168946164E+02  0.40513087788E+02  0.00000000000E+00 0.  1.
<scales pt_clust_1="13000.00000" pt_clust_2="13000.00000" pt_clust_3="30.05260"></scales>
<clustering>
<clus scale="   30.053">  2  5  1 -1</clus>
<clus scale="  708.138">  2  4  1 -1</clus>
<clus scale="  708.138">  1  3  2 -1</clus>
</clustering>
</event>
<event>
 5   1  0.3464723E-02  0.3500584E+03  0.7816531E-02  0.1062591E+00
       21   -1    0    0  504  502  0.00000000000E+00  0.00000000000E+00  0.17837119240E+03  0.17837119240E+03  0.00000000000E+00 0. -1.
       21   -1    0    0  501  503  0.00000000000E+00  0.00000000000E+00 -0.84207927510E+03  0.84207927510E+03  0.00000000000E+00 0. -1.
  1000006    1    1    2  501    0  0.29989787743E+02  0.26488563328E+02 -0.32562592170E+03  0.47972207813E+03  0.35000000000E+03 0.  0.
 -1000006    1    1    2    0  502  0.14678194582E+02  0.26369463157E+02 -0.26468915583E+03  0.43985355199E+03  0.35000000000E+03 0.  0.
       21    1    1    2  504  503 -0.44667982325E+02 -0.52858026485E+02 -0.73393005164E+02  0.10087483738E+03  0.00000000000E+00 0.  1.
<scales pt_clust_1="13000.00000" pt_clust_2="13000.00000" pt_clust_3="69.20404"></scales>
<clustering>
<clus scale="   69.204">  2  5  1 -1</clus>
<clus scale="  350.058">  1  4  2 -1</clus>
<clus scale="  350.058">  1  3  2 -1</clus>
</clustering>
</event>
<event>
 6   2  0.3464723E-02  0.3643322E+03  0.7816531E-02  0.1056882E+00
       21   -1    0    0  501  502  0.00000000000E+00  0.00000000000E+00  0.29694804088E+03  0.29694804088E+03  0.00000000000E+00 0. -1.
       21   -1    0    0  505  503  0.00000000000E+00  0.00000000000E+00 -0.13459435861E+04  0.13459435861E+04  0.00000000000E+00 0. -1.
  1000006    1    1    2  501    0 -0.67667886270E+02  0.55989309424E+02 -0.20649184785E+03  0.41575549164E+03  0.35000000000E+03 0.  0.
 -1000006    1    1    2    0  504  0.39666110747E+02 -0.67826646182E+02 -0.83387551782E+03  0.90775670391E+03  0.35000000000E+03 0.  0.
       21    1    1    2  504  503  0.69188961123E+02  0.27701663173E+00 -0.15347362779E+03  0.16834887439E+03  0.00000000000E+00 0. -1.
       21    1    1    2  505  502 -0.41187185600E+02  0.11560320126E+02  0.14484544828E+03  0.15103055700E+03  0.00000000000E+00 0. -1.
<scales pt_clust_1="13000.00000" pt_clust_2="13000.00000" pt_clust_3="67.13859" pt_clust_4="42.77879"></scales>
<clustering>
<clus scale="   42.779">  1  6  2 -1</clus>
<clus scale="   67.139">  2  5  1 -1</clus>
<clus scale="  364.332">  2  4  1 -1</clus>
<clus scale="  364.332">  1  3  2 -1</clus>
</clustering>
</event>
<event>
 6   2  0.3464723E-02  0.3522870E+03  0.7816531E-02  0.1061680E+00
       21   -1    0    0  501  502  0.00000000000E+00  0.00000000000E+00  0.90502730122E+03  0.90502730122E+03  0.00000000000E+00 0. -1.
       21   -1    0    0  505  503  0.00000000000E+00  0.00000000000E+00 -0.57750295301E+03  0.57750295301E+03  0.00000000000E+00 0.  1.
  1000006    1    1    2  501    0 -0.77887052676E+02 -0.10919353973E+03  0.33267012558E+03  0.50115769429E+03  0.35000000000E+03 0.  0.
 -1000006    1    1    2    0  503  0.35222248304E+00 -0.95605680041E+02  0.30018604089E+03  0.47090575412E+03  0.35000000000E+03 0.  0.
       21    1    1    2  504  502  0.95062925413E+02  0.17554228514E+03  0.35958698485E+01  0.19966217453E+03  0.00000000000E+00 0. -1.
       21    1    1    2  505  504 -0.17528095219E+02  0.29256934633E+02 -0.30892768811E+03  0.31080463128E+03  0.00000000000E+00 0.  1.
<scales pt_clust_1="13000.00000" pt_clust_2="13000.00000" pt_clust_3="206.27618" pt_clust_4="34.10575"></scales>
<clustering>
<clus scale="   34.106">  2  6  1 -1</clus>
<clus scale="  206.276">  2  5  1 -1</clus>
<clus scale="  352.287">  1  3  2 -1</clus>
<clus scale="  352.287">  1  3  2 -1</clus>
</clustering>
</event>
<event>
 6   2  0.3464723E-02  0.4445359E+03  0.7816531E-02  0.1029364E+00
       21   -1    0    0  504  502  0.00000000000E+00  0.00000000000E+00  0.47238762375E+03  0.47238762375E+03  0.00000000000E+00 0.  1.
       21   -1    0    0  501  503  0.00000000000E+00  0.00000000000E+00 -0.11200777663E+04  0.11200777663E+04  0.00000000000E+00 0.  1.
  1000006    1    1    2  501    0 -0.81465469547E+02 -0.30830691920E+03 -0.61458455748E+03  0.77582469505E+03  0.35000000000E+03 0.  0.
 -1000006    1    1    2    0  502  0.28902066066E+03  0.44267559194E+02 -0.19638489269E+02  0.45648464306E+03  0.35000000000E+03 0.  0.
       21    1    1    2  504  505  0.74751213170E+01  0.54478653579E+02 -0.23340661543E+02  0.59737656597E+02  0.00000000000E+00 0. -1.
       21    1    1    2  505  503 -0.21503031243E+03  0.20956070642E+03  0.98735657731E+01  0.30041839531E+03  0.00000000000E+00 0.  1.
<scales pt_clust_1="13000.00000" pt_clust_2="13000.00000" pt_clust_3="54.98910" pt_clust_4="311.78195"></scales>
<clustering>
<clus scale="   54.989">  1  5  2 -1</clus>
<clus scale="  311.782">  1  6  2 -1</clus>
<clus scale="  444.536">  2  3  1 -1</clus>
<clus scale="  444.536">  1  3  2 -1</clus>
</clustering>
</event>
<event>
 5   1  0.3464723E-02  0.3530133E+03  0.7816531E-02  0.1061385E+00
       21   -1    0    0  501  502  0.00000000000E+00  0.00000000000E+00  0.13122621348E+04  0.13122621348E+04  0.00000000000E+00 0.  1.
       21   -1    0    0  504  503  0.00000000000E+00  0.00000000000E+00 -0.24569365245E+03  0.24569365245E+03  0.00000000000E+00 0.  1.
  1000006    1    1    2  501    0  0.85863462770E+02  0.31711414046E+02  0.86662653246E+03  0.93910579531E+03  0.35000000000E+03 0.  0.
 -1000006    1    1    2    0  503 -0.21916408546E+02 -0.34319843032E+02 -0.54439150740E+02  0.35654144461E+03  0.35000000000E+03 0.  0.
       21    1    1    2  504  502 -0.63947054225E+02  0.26084289855E+01  0.25438110059E+03  0.26230854730E+03  0.00000000000E+00 0. -1.
<scales pt_clust_1="13000.00000" pt_clust_2="13000.00000" pt_clust_3="64.00023"></scales>
<clustering>
<clus scale="   64.000">  1  5  2 -1</clus>
<clus scale="  353.013">  1  3  2 -1</clus>
<clus scale="  353.013">  1  3  2 -1</clus>
</clustering>
</event>
<event>
 5   1  0.3464723E-02  0.3576472E+03  0.7816531E-02  0.1059519E+00
        2   -1    0    0  503    0  0.00000000000E+00  0.00000000000E+00  0.37149974207E+04  0.37149974207E+04  0.00000000000E+00 0.  1.
       21   -1    0    0  501  503  0.00000000000E+00  0.00000000000E+00 -0.18555812754E+03  0.18555812754E+03  0.00000000000E+00 0. -1.
  1000006    1    1    2  501    0  0.34909262560E+00 -0.86505782601E+02  0.15346283934E+03  0.39183442338E+03  0.35000000000E+03 0.  0.
 -1000006    1    1    2    0  502 -0.39207673829E+02  0.46946133448E+02  0.41125546317E+03  0.54348158857E+03  0.35000000000E+03 0.  0.
        2    1    1    2  502    0  0.38858581204E+02  0.39559649154E+02  0.29647209907E+04  0.29652395363E+04  0.00000000000E+00 0.  1.
<scales pt_clust_1="13000.00000" pt_clust_2="13000.00000" pt_clust_3="55.45228"></scales>
<clustering>
<clus scale="   55.452">  1  5  2 -1</clus>
<clus scale="  357.647">  2  3  1 -1</clus>
<clus scale="  357.647">  2  3  1 -1</clus>
</clustering>
</event>
<event>
 5   1  0.3464723E-02  0.4050759E+03  0.7816531E-02  0.1042036E+00
       21   -1    0    0  504  502  0.00000000000E+00  0.00000000000E+00  0.27706149357E+03  0.27706149357E+03  0.00000000000E+00 0.  1.
       21   -1    0    0  501  503  0.00000000000E+00  0.00000000000E+00 -0.65568761905E+03  0.65568761905E+03  0.00000000000E+00 0.  1.
  1000006    1    1    2  501    0  0.55103527071E+02 -0.21050704613E+03 -0.22348810219E+03  0.46882464417E+03  0.35000000000E+03 0.  0.
 -1000006    1    1    2    0  502 -0.74241904431E+02  0.17893702960E+03 -0.13749580291E+03  0.42300758474E+03  0.35000000000E+03 0.  0.
       21    1    1    2  504  503  0.19138377360E+02  0.31570016528E+02 -0.17642220391E+02  0.40916883702E+02  0.00000000000E+00 0.  1.
<scales pt_clust_1="13000.00000" pt_clust_2="13000.00000" pt_clust_3="36.91806"></scales>
<clustering>
<clus scale="   36.918">  2  5  1 -1</clus>
<clus scale="  405.076">  2  3  1 -1</clus>
<clus scale="  405.076">  1  3  2 -1</clus>
</clustering>
</event>
<event>
 4   0  0.3464723E-02  0.5348695E+03  0.7816531E-02  0.1005058E+00
       21   -1    0    0  503  502  0.00000000000E+00  0.00000000000E+00  0.48468551033E+03  0.48468551033E+03  0.00000000000E+00 0.  1.
       21   -1    0    0  501  503  0.00000000000E+00  0.00000000000E+00 -0.59901030141E+03  0.59901030141E+03  0.00000000000E+00 0.  1.
  1000006    1    1    2  501    0 -0.36975375160E+03  0.16391322268E+03 -0.12269117926E+03  0.54876088314E+03  0.35000000000E+03 0.  0.
 -1000006    1    1    2    0  502  0.36975375160E+03 -0.16391322268E+03  0.83663881807E+01  0.53493492861E+03  0.35000000000E+03 0.  0.
<scales pt_clust_1="13000.00000" pt_clust_2="13000.00000"></scales>
<clustering>
<clus scale="  534.869">  2  3  1 -1</clus>
<clus scale="  534.869">  1  3  2 -1</clus>
</clustering>
</event>
<event>
 6   2  0.3464723E-02  0.3678986E+03  0.7816531E-02  0.1055499E+00
       21   -1    0    0  501  502  0.00000000000E+00  0.00000000000E+00  0.55883404546E+03  0.55883404546E+03  0.00000000000E+00 0. -1.
       21   -1    0    0  505  503  0.00000000000E+00  0.00000000000E+00 -0.15023960390E+04  0.15023960390E+04  0.00000000000E+00 0. -1.
  1000006    1    1    2  501    0  0.77971448583E+02 -0.12039262085E+02 -0.19966192689E+03  0.41059636588E+03  0.35000000000E+03 0.  0.
 -1000006    1    1    2    0  503  0.17503902035E+03  0.20248972880E+03 -0.62306662063E+03  0.76312041164E+03  0.35000000000E+03 0.  0.
       21    1    1    2  504  502 -0.10257591548E+03 -0.12269515231E+03  0.35205111516E+03  0.38667286758E+03  0.00000000000E+00 0. -1.
       21    1    1    2  505  504 -0.15043455345E+03 -0.67755314401E+02 -0.47288456114E+03  0.50084043933E+03  0.00000000000E+00 0. -1.
<scales pt_clust_1="13000.00000" pt_clust_2="13000.00000" pt_clust_3="159.92473" pt_clust_4="175.68125"></scales>
<clustering>
<clus scale="  159.925">  1  5  2 -1</clus>
<clus scale="  175.681">  2  6  1 -1</clus>
<clus scale="  367.899">  2  4  1 -1</clus>
<clus scale="  367.899">  1  3  2 -1</clus>
</clustering>
</event>
<event>
 4   0  0.3464723E-02  0.5184696E+03  0.7816531E-02  0.1009067E+00
       21   -1    0    0  501  502  0.00000000000E+00  0.00000000000E+00  0.11466106018E+04  0.11466106018E+04  0.00000000000E+00 0. -1.
       21   -1    0    0  502  503  0.00000000000E+00  0.00000000000E+00 -0.23759620085E+03  0.23759620085E+03  0.00000000000E+00 0.  1.
  1000006    1    1    2  501    0  0.38097003564E+03 -0.34242741266E+02  0.53428332213E+03  0.74449271433E+03  0.35000000000E+03 0.  0.
 -1000006    1    1    2    0  503 -0.38097003564E+03  0.34242741266E+02  0.37473107886E+03  0.63971408836E+03  0.35000000000E+03 0.  0.
<scales pt_clust_1="13000.00000" pt_clust_2="13000.00000"></scales>
<clustering>
<clus scale="  518.470">  1  3  2 -1</clus>
<clus scale="  518.470">  1  3  2 -1</clus>
</clustering>
</event>
<event>
 4   0  0.3464723E-02  0.3583939E+03  0.7816531E-02  0.1059222E+00
       21   -1    0    0  503  502  0.00000000000E+00  0.00000000000E+00  0.21041775750E+03  0.21041775750E+03  0.00000000000E+00 0. -1.
       21   -1    0    0  501  503  0.00000000000E+00  0.00000000000E+00 -0.61128976268E+03  0.61128976268E+03  0.00000000000E+00 0. -1.
  1000006    1    1    2  501    0 -0.38356026334E+02 -0.66895317985E+02 -0.21580771863E+03  0.41835288901E+03  0.35000000000E+03 0.  0.
 -1000006    1    1    2    0  502  0.38356026334E+02  0.66895317985E+02 -0.18506428655E+03  0.40335463116E+03  0.35000000000E+03 0.  0.
<scales pt_clust_1="13000.00000" pt_clust_2="13000.00000"></scales>
<clustering>
<clus scale="  358.394">  2  3  1 -1</clus>
<clus scale="  358.394">  1  3  2 -1</clus>
</clustering>
</event>
<event>
 4   0  0.3464723E-02  0.3787409E+03  0.7816531E-02  0.1051400E+00
       21   -1    0    0  501  502  0.00000000000E+00  0.00000000000E+00  0.41868762145E+03  0.41868762145E+03  0.00000000000E+00 0.  1.
       21   -1    0    0  502  503  0.00000000000E+00  0.00000000000E+00 -0.34440399980E+03  0.34440399980E+03  0.00000000000E+00 0. -1.
  1000006    1    1    2  501    0 -0.14000533400E+03 -0.36648925765E+02  0.64714596817E+02  0.38422990038E+03  0.35000000000E+03 0.  0.
 -1000006    1    1    2    0  503  0.14000533400E+03  0.36648925765E+02  0.95690248326E+01  0.37886172087E+03  0.35000000000E+03 0.  0.
<scales pt_clust_1="13000.00000" pt_clust_2="13000.00000"></scales>
<clustering>
<clus scale="  378.741">  1  3  2 -1</clus>
<clus scale="  378.741">  1  3  2 -1</clus>
</clustering>
</event>
<event>
 5   1  0.3464723E-02  0.3824280E+03  0.7816531E-02  0.1050040E+00
        2   -1    0    0  501    0  0.00000000000E+00  0.00000000000E+00  0.10023558591E+03  0.10023558591E+03  0.00000000000E+00 0. -1.
       21   -1    0    0  502  503  0.00000000000E+00  0.00000000000E+00 -0.18867980914E+04  0.18867980914E+04  0.00000000000E+00 0. -1.
  1000006    1    1    2  501    0  0.10882258644E+02 -0.19083310941E+03 -0.72036097147E+03  0.82338060970E+03  0.35000000000E+03 0.  0.
 -1000006    1    1    2    0  503  0.49335180703E+02  0.12410104248E+03 -0.89639384359E+03  0.97152300623E+03  0.35000000000E+03 0.  0.
        2    1    1    2  502    0 -0.60217439348E+02  0.66732066932E+02 -0.16980769043E+03  0.19213006138E+03  0.00000000000E+00 0. -1.
<scales pt_clust_1="13000.00000" pt_clust_2="13000.00000" pt_clust_3="89.88498"></scales>
<clustering>
<clus scale="   89.885">  1  5  2 -1</clus>
<clus scale="  382.428">  1  3  2 -1</clus>
<clus scale="  382.428">  2  3  1 -1</clus>
</clustering>
</event>
<event>
 5   1  0.3464723E-02  0.3594910E+03  0.7816531E-02  0.1058786E+00
       21   -1    0    0  501  502  0.00000000000E+00  0.00000000000E+00  0.12585410683E+04  0.12585410683E+04  0.00000000000E+00 0.  1.
       21   -1    0    0  504  503  0.00000000000E+00  0.00000000000E+00 -0.14094415292E+03  0.14094415292E+03  0.00000000000E+00 0.  1.
  1000006    1    1    2  501    0  0.86972295665E+02  0.34377206783E+02  0.59671846156E+03  0.69808229811E+03  0.35000000000E+03 0.  0.
 -1000006    1    1    2    0  503 -0.55102158231E+02 -0.46843385038E+02  0.55036806355E+03  0.65622828036E+03  0.35000000000E+03 0.  0.
       21    1    1    2  504  502 -0.31870137434E+02  0.12466178255E+02 -0.29489609777E+02  0.45174642723E+02  0.00000000000E+00 0.  1.
<scales pt_clust_1="13000.00000" pt_clust_2="13000.00000" pt_clust_3="34.22150"></scales>
<clustering>
<clus scale="   34.222">  2  5  1 -1</clus>
<clus scale="  359.491">  1  3  2 -1</clus>
<clus scale="  359.491">  1  3  2 -1</clus>
</clustering>
</event>
<event>
 5   1  0.3464723E-02  0.4061171E+03  0.7816531E-02  0.1041682E+00
       21   -1    0    0  504  502  0.00000000000E+00  0.00000000000E+00  0.33039014878E+03  0.33039014878E+03  0.00000000000E+00 0.  1.
       21   -1    0    0  501  503  0.00000000000E+00  0.00000000000E+00 -0.10320804185E+04  0.10320804185E+04  0.00000000000E+00 0.  1.
  1000006    1    1    2  501    0 -0.15213548895E+03 -0.17602774615E+03 -0.10036166473E+03  0.43209193253E+03  0.35000000000E+03 0.  0.
 -1000006    1    1    2    0  502  0.14170617660E+03  0.11640056442E+03 -0.76997194566E+02  0.40256465301E+03  0.35000000000E+03 0.  0.
       21    1    1    2  504  503  0.10429312353E+02  0.59627181728E+02 -0.52433141040E+03  0.52781398171E+03  0.00000000000E+00 0.  1.
<scales pt_clust_1="13000.00000" pt_clust_2="13000.00000" pt_clust_3="60.53240"></scales>
<clustering>
<clus scale="   60.532">  2  5  1 -1</clus>
<clus scale="  406.117">  2  3  1 -1</clus>
<clus scale="  406.117">  1  3  2 -1</clus>
</clustering>
</event>
<event>
 6   2  0.3464723E-02  0.4143023E+03  0.7816531E-02  0.1038937E+00
        1   -1    0    0  502    0  0.00000000000E+00  0.00000000000E+00  0.23063016794E+04  0.23063016794E+04  0.00000000000E+00 0. -1.
       -4   -1    0    0    0  501  0.00000000000E+00  0.00000000000E+00 -0.22462429425E+03  0.22462429425E+03  0.00000000000E+00 0.  1.
  1000006    1    1    2  502    0  0.13042363434E+03 -0.23944850218E+03  0.14361443688E+03  0.46633787759E+03  0.35000000000E+03 0.  0.
 -1000006    1    1    2    0  501  0.73600324537E+02  0.56797626176E+02  0.11887440491E+04  0.12426807282E+04  0.35000000000E+03 0.  0.
        1    1    1    2  503    0 -0.51867213699E+02  0.26791618050E+02  0.43847914993E+03  0.44234823791E+03  0.00000000000E+00 0. -1.
       -4    1    1    2    0  503 -0.15215674518E+03  0.15585925796E+03  0.31083974926E+03  0.37955912993E+03  0.00000000000E+00 0.  1.
<scales pt_clust_1="13000.00000" pt_clust_2="13000.00000" pt_clust_3="58.37807" pt_clust_4="228.09120"></scales>
<clustering>
<clus scale="   58.378">  1  5  2 -1</clus>
<clus scale="  228.091">  1  6  2 -1</clus>
<clus scale="  838.498">  3  4 -1 -1</clus>
<clus scale="  414.302">  1  3  2 -1</clus>
</clustering>
</event>
<event>
 5   1  0.3464723E-02  0.3652062E+03  0.7816531E-02  0.1056541E+00
        2   -1    0    0  501    0  0.00000000000E+00  0.00000000000E+00  0.27566655684E+04  0.27566655684E+04  0.00000000000E+00 0. -1.
       21   -1    0    0  502  503  0.00000000000E+00  0.00000000000E+00 -0.13158549102E+03  0.13158549102E+03  0.00000000000E+00 0.  1.
  1000006    1    1    2  501    0  0.10770940923E+02  0.17135226507E+03  0.71156178163E+03  0.81135552071E+03  0.35000000000E+03 0.  0.
 -1000006    1    1    2    0  503  0.16774178713E+03  0.41306772082E+02  0.48950211276E+03  0.62606379465E+03  0.35000000000E+03 0.  0.
        2    1    1    2  502    0 -0.17851272805E+03 -0.21265903715E+03  0.14240161830E+04  0.14508317440E+04  0.00000000000E+00 0. -1.
<scales pt_clust_1="13000.00000" pt_clust_2="13000.00000" pt_clust_3="277.65205"></scales>
<clustering>
<clus scale="  277.652">  1  5  2 -1</clus>
<clus scale="  365.206">  2  4  1 -1</clus>
<clus scale="  365.206">  2  3  1 -1</clus>
</clustering>
</event>
<event>
 5   1  0.3464723E-02  0.5281198E+03  0.7816531E-02  0.1006689E+00
       21   -1    0    0  503  502  0.00000000000E+00  0.00000000000E+00  0.24761731269E+03  0.24761731269E+03  0.00000000000E+00 0. -1.
       21   -1    0    0  504  503  0.00000000000E+00  0.00000000000E+00 -0.16495479279E+04  0.16495479279E+04  0.00000000000E+00 0.  1.
  1000006    1    1    2  501    0 -0.14651246079E+03 -0.39266435420E+03 -0.66386725836E+03  0.85957601930E+03  0.35000000000E+03 0.  0.
 -1000006    1    1    2    0  502  0.13629566923E+03  0.35636629869E+03 -0.30098412598E+03  0.59888637685E+03  0.35000000000E+03 0.  0.
       21    1    1    2  504  501  0.10216791562E+02  0.36298055515E+02 -0.43707923085E+03  0.43870284442E+03  0.00000000000E+00 0.  1.
<scales pt_clust_1="13000.00000" pt_clust_2="13000.00000" pt_clust_3="37.70851"></scales>
<clustering>
<clus scale="   37.709">  2  5  1 -1</clus>
<clus scale="  528.120">  2  3  1 -1</clus>
<clus scale="  528.120">  1  3  2 -1</clus>
</clustering>
</event>
<event>
 6   2  0.3464723E-02  0.4648378E+03  0.7816531E-02  0.1023387E+00
       -2   -1    0    0    0  501  0.00000000000E+00  0.00000000000E+00  0.14521100965E+04  0.14521100965E+04  0.00000000000E+00 0.  1.
       21   -1    0    0  501  503  0.00000000000E+00  0.00000000000E+00 -0.60120186379E+03  0.60120186379E+03  0.00000000000E+00 0. -1.
  1000006    1    1    2  502    0  0.30351675587E+03 -0.32725023387E+03  0.39197211907E+03  0.68946158616E+03  0.35000000000E+03 0.  0.
 -1000006    1    1    2    0  504 -0.20311472864E+03  0.21027245411E+03  0.41844091506E+02  0.45795308268E+03  0.35000000000E+03 0.  0.
       21    1    1    2  504  503 -0.33872437691E+02 -0.22956993971E+03 -0.12154754792E+03  0.26196088574E+03  0.00000000000E+00 0. -1.
       -2    1    1    2    0  502 -0.66529589546E+02  0.34654771947E+03  0.53863957006E+03  0.64393640570E+03  0.00000000000E+00 0.  1.
<scales pt_clust_1="13000.00000" pt_clust_2="13000.00000" pt_clust_3="232.05538" pt_clust_4="324.85671"></scales>
<clustering>
<clus scale="  232.055">  2  5  1 -1</clus>
<clus scale="  324.857">  1  6  2 -1</clus>
<clus scale="  464.838">  1  3  2 -1</clus>
<clus scale="  464.838">  2  3  1 -1</clus>
</clustering>
</event>
<event>
 4   0  0.3464723E-02  0.4142689E+03  0.7816531E-02  0.1038948E+00
       21   -1    0    0  503  502  0.00000000000E+00  0.00000000000E+00  0.82155244278E+03  0.82155244278E+03  0.00000000000E+00 0.  1.
       21   -1    0    0  501  503  0.00000000000E+00  0.00000000000E+00 -0.28223437529E+03  0.28223437529E+03  0.00000000000E+00 0.  1.
  1000006    1    1    2  501    0 -0.81601282460E+02  0.20605808100E+03 -0.11671608889E+02  0.41443326182E+03  0.35000000000E+03 0.  0.
 -1000006    1    1    2    0  502  0.81601282460E+02 -0.20605808100E+03  0.55098967638E+03  0.68935355626E+03  0.35000000000E+03 0.  0.
<scales pt_clust_1="13000.00000" pt_clust_2="13000.00000"></scales>
<clustering>
<clus scale="  414.269">  2  3  1 -1</clus>
<clus scale="  414.269">  1  3  2 -1</clus>
</clustering>
</event>
<event>
 4   0  0.3464723E-02  0.3560122E+03  0.7816531E-02  0.1060174E+00
       21   -1    0    0  503  502  0.00000000000E+00  0.00000000000E+00  0.49833172730E+03  0.49833172730E+03  0.00000000000E+00 0.  1.
       21   -1    0    0  501  503  0.00000000000E+00  0.00000000000E+00 -0.38548206757E+03  0.38548206757E+03  0.00000000000E+00 0.  1.
  1000006    1    1    2  501    0  0.16470360276E+02  0.63035258675E+02 -0.20132770376E+03  0.40899579570E+03  0.35000000000E+03 0.  0.
 -1000006    1    1    2    0  502 -0.16470360276E+02 -0.63035258675E+02  0.31417736348E+03  0.47481799916E+03  0.35000000000E+03 0.  0.
<scales pt_clust_1="13000.00000" pt_clust_2="13000.00000"></scales>
<clustering>
<clus scale="  356.012">  2  3  1 -1</clus>
<clus scale="  356.012">  1  3  2 -1</clus>
</clustering>
</event>
<event>
 6   2  0.3464723E-02  0.3763867E+03  0.7816531E-02  0.1052277E+00
       21   -1    0    0  504  503  0.00000000000E+00  0.00000000000E+00  0.75596045032E+03  0.75596045032E+03  0.00000000000E+00 0. -1.
        2   -1    0    0  501    0  0.00000000000E+00  0.00000000000E+00 -0.97245951064E+03  0.97245951064E+03  0.00000000000E+00 0.  1.
  1000006    1    1    2  501    0 -0.12931604913E+02 -0.24404261382E+03  0.17090027206E+03  0.45981618801E+03  0.35000000000E+03 0.  0.
 -1000006    1    1    2    0  503  0.48834030596E+02  0.68437717088E+02  0.29226910030E+03  0.46366982935E+03  0.35000000000E+03 0.  0.
       21    1    1    2  504  502  0.12053981532E+02  0.10689845301E+03  0.11969081501E+02  0.10823971839E+03  0.00000000000E+00 0.  1.
        2    1    1    2  502    0 -0.47956407215E+02  0.68706443724E+02 -0.69163751418E+03  0.69669422520E+03  0.00000000000E+00 0.  1.
<scales pt_clust_1="13000.00000" pt_clust_2="13000.00000" pt_clust_3="118.84180" pt_clust_4="83.78778"></scales>
<clustering>
<clus scale="   83.788">  2  6  1 -1</clus>
<clus scale="  118.842">  2  5  1 -1</clus>
<clus scale="  376.387">  1  4  2 -1</clus>
<clus scale="  376.387">  1  3  2 -1</clus>
</clustering>
</event>
<event>
 4   0  0.3464723E-02  0.4009541E+03  0.7816531E-02  0.1043450E+00
       21   -1    0    0  501  502  0.00000000000E+00  0.00000000000E+00  0.91897303837E+03  0.91897303837E+03  0.00000000000E+00 0.  1.
       21   -1    0    0  502  503  0.00000000000E+00  0.00000000000E+00 -0.17550449536E+03  0.17550449536E+03  0.00000000000E+00 0.  1.
  1000006    1    1    2  501    0 -0.19556304633E+03 -0.43890748409E+01  0.40279920002E+03  0.56834088767E+03  0.35000000000E+03 0.  0.
 -1000006    1    1    2    0  503  0.19556304633E+03  0.43890748409E+01  0.34066934299E+03  0.52613664605E+03  0.35000000000E+03 0.  0.
<scales pt_clust_1="13000.00000" pt_clust_2="13000.00000"></scales>
<clustering>
<clus scale="  400.954">  1  3  2 -1</clus>
<clus scale="  400.954">  1  3  2 -1</clus>
</clustering>
</event>
<event>
 5   1  0.3464723E-02  0.3517587E+03  0.7816531E-02  0.1061896E+00
       21   -1    0    0  501  502  0.00000000000E+00  0.00000000000E+00  0.65894379237E+03  0.65894379237E+03  0.00000000000E+00 0.  1.
       21   -1    0    0  502  503  0.00000000000E+00  0.00000000000E+00 -0.21455302921E+03  0.21455302921E+03  0.00000000000E+00 0.  1.
  1000006    1    1    2  501    0  0.78279642524E+01 -0.20444319289E+02  0.22438799448E+03  0.41632825905E+03  0.35000000000E+03 0.  0.
 -1000006    1    1    2    0  504  0.25702878246E+02  0.48336567275E+02  0.21193999069E+03  0.41281426979E+03  0.35000000000E+03 0.  0.
       21    1    1    2  504  503 -0.33530842499E+02 -0.27892247986E+02  0.80627779851E+01  0.44354292748E+02  0.00000000000E+00 0.  1.
<scales pt_clust_1="13000.00000" pt_clust_2="13000.00000" pt_clust_3="43.61531"></scales>
<clustering>
<clus scale="   43.615">  2  5  1 -1</clus>
<clus scale="  351.759">  1  3  2 -1</clus>
<clus scale="  351.759">  1  3  2 -1</clus>
</clustering>
</event>
<event>
 5   1  0.3464723E-02  0.3839923E+03  0.7816531E-02  0.1049468E+00
       21   -1    0    0  501  502  0.00000000000E+00  0.00000000000E+00  0.19232971510E+03  0.19232971510E+03  0.00000000000E+00 0. -1.
       21   -1    0    0  504  503  0.00000000000E+00  0.00000000000E+00 -0.14297392493E+04  0.14297392493E+04  0.00000000000E+00 0. -1.
  1000006    1    1    2  501    0  0.29100265679E+02 -0.14933295590E+03 -0.18969780999E+03  0.42618354766E+03  0.35000000000E+03 0.  0.
 -1000006    1    1    2    0  503  0.52243260918E+02  0.17327210439E+03 -0.47601326406E+03  0.61793301258E+03  0.35000000000E+03 0.  0.
       21    1    1    2  504  502 -0.81343526597E+02 -0.23939148497E+02 -0.57169846011E+03  0.57795240413E+03  0.00000000000E+00 0. -1.
<scales pt_clust_1="13000.00000" pt_clust_2="13000.00000" pt_clust_3="84.79300"></scales>
<clustering>
<clus scale="   84.793">  2  5  1 -1</clus>
<clus scale="  383.992">  2  4  1 -1</clus>
<clus scale="  383.992">  1  3  2 -1</clus>
</clustering>
</event>
<event>
 4   0  0.3464723E-02  0.5084474E+03  0.7816531E-02  0.1011597E+00
       21   -1    0    0  501  502  0.00000000000E+00  0.00000000000E+00  0.76524069081E+03  0.76524069081E+03  0.00000000000E+00 0. -1.
       21   -1    0    0  502  503  0.00000000000E+00  0.00000000000E+00 -0.62365053681E+03  0.62365053681E+03  0.00000000000E+00 0. -1.
  1000006    1    1    2  501    0 -0.26020717833E+03  0.26136365755E+03  0.54092382793E+03  0.74237276672E+03  0.35000000000E+03 0.  0.
 -1000006    1    1    2    0  503  0.26020717833E+03 -0.26136365755E+03 -0.39933367394E+03  0.64651846090E+03  0.35000000000E+03 0.  0.
<scales pt_clust_1="13000.00000" pt_clust_2="13000.00000"></scales>
<clustering>
<clus scale="  508.447">  1  3  2 -1</clus>
<clus scale="  508.447">  1  3  2 -1</clus>
</clustering>
</event>
<event>
 4   0  0.3464723E-02  0.3724470E+03  0.7816531E-02  0.1053761E+00
       21   -1    0    0  503  502  0.00000000000E+00  0.00000000000E+00  0.45190019913E+03  0.45190019913E+03  0.00000000000E+00 0.  1.
       21   -1    0    0  501  503  0.00000000000E+00  0.00000000000E+00 -0.58713668350E+03  0.58713668350E+03  0.00000000000E+00 0.  1.
  1000006    1    1    2  501    0 -0.80513117325E+02  0.98662908876E+02 -0.42649462160E+03  0.56622821715E+03  0.35000000000E+03 0.  0.
 -1000006    1    1    2    0  502  0.80513117325E+02 -0.98662908876E+02  0.29125813723E+03  0.47280866548E+03  0.35000000000E+03 0.  0.
<scales pt_clust_1="13000.00000" pt_clust_2="13000.00000"></scales>
<clustering>
<clus scale="  372.447">  2  3  1 -1</clus>
<clus scale="  372.447">  1  3  2 -1</clus>
</clustering>
</event>
<event>
 6   2  0.3464723E-02  0.4005570E+03  0.7816531E-02  0.1043587E+00
       21   -1    0    0  504  502  0.00000000000E+00  0.00000000000E+00  0.23781956593E+04  0.23781956593E+04  0.00000000000E+00 0.  1.
       21   -1    0    0  501  503  0.00000000000E+00  0.00000000000E+00 -0.71697027757E+03  0.71697027757E+03  0.00000000000E+00 0.  1.
  1000006    1    1    2  501    0 -0.11477947962E+03 -0.52674474703E+02 -0.24060235838E+03  0.44310091862E+03  0.35000000000E+03 0.  0.
 -1000006    1    1    2    0  505  0.25514367277E+03  0.12203732274E+03 -0.15799761224E+03  0.47692205586E+03  0.35000000000E+03 0.  0.
       21    1    1    2  504  503 -0.42786051954E+02  0.83146397972E+01 -0.47305576003E+02  0.64324155631E+02  0.00000000000E+00 0.  1.
       21    1    1    2  505  502 -0.97578141200E+02 -0.77677487833E+02  0.21071309284E+04  0.21108188068E+04  0.00000000000E+00 0.  1.
<scales pt_clust_1="13000.00000" pt_clust_2="13000.00000" pt_clust_3="43.58646" pt_clust_4="124.79978"></scales>
<clustering>
<clus scale="   43.586">  2  5  1 -1</clus>
<clus scale="  124.800">  1  6  2 -1</clus>
<clus scale="  400.557">  2  3  1 -1</clus>
<clus scale="  400.557">  1  3  2 -1</clus>
</clustering>
</event>
<event>
 6   2  0.3464723E-02  0.3526376E+03  0.7816531E-02  0.1061538E+00
       21   -1    0    0  505  502  0.00000000000E+00  0.00000000000E+00  0.16073452222E+04  0.16073452222E+04  0.00000000000E+00 0.  1.
       21   -1    0    0  504  503  0.00000000000E+00  0.00000000000E+00 -0.28531125294E+03  0.28531125294E+03  0.00000000000E+00 0.  1.
  1000006    1    1    2  501    0 -0.40670407408E+02  0.35481293007E+02  0.53166027214E+03  0.63880799084E+03  0.35000000000E+03 0.  0.
 -1000006    1    1    2    0  502  0.10380915755E+02 -0.24672380646E+02  0.85286045050E+03  0.92227297359E+03  0.35000000000E+03 0.  0.
       21    1    1    2  504  501 -0.27736738396E+02 -0.24387335049E+02 -0.18855151291E+03  0.19213469699E+03  0.00000000000E+00 0.  1.
       21    1    1    2  505  503  0.58026230048E+02  0.13578422688E+02  0.12606475948E+03  0.13944081368E+03  0.00000000000E+00 0.  1.
<scales pt_clust_1="13000.00000" pt_clust_2="13000.00000" pt_clust_3="36.93330" pt_clust_4="57.31364"></scales>
<clustering>
<clus scale="   36.933">  2  5  1 -1</clus>
<clus scale="   57.314">  1  6  2 -1</clus>
<clus scale="  352.638">  1  4  2 -1</clus>
<clus scale="  352.638">  1  3  2 -1</clus>
</clustering>
</event>
<event>
 6   2  0.3464723E-02  0.3550225E+03  0.7816531E-02  0.1060572E+00
       21   -1    0    0  505  502  0.00000000000E+00  0.00000000000E+00  0.11376744641E+04  0.11376744641E+04  0.00000000000E+00 0. -1.
       21   -1    0    0  502  503  0.00000000000E+00  0.00000000000E+00 -0.35534671531E+03  0.35534671531E+03  0.00000000000E+00 0. -1.
  1000006    1    1    2  501    0  0.22542166205E+03 -0.15950909541E+03  0.26117274899E+03  0.51669070251E+03  0.35000000000E+03 0.  0.
 -1000006    1    1    2    0  503  0.40921408217E+02 -0.14450288393E+02  0.78971426469E+01  0.35276867399E+03  0.35000000000E+03 0.  0.
       21    1    1    2  504  501 -0.27979595974E+03  0.13128036861E+03  0.43948109528E+03  0.53727455493E+03  0.00000000000E+00 0. -1.
       21    1    1    2  505  504  0.13452889470E+02  0.42679015197E+02  0.73776761860E+02  0.86287247980E+02  0.00000000000E+00 0.  1.
<scales pt_clust_1="13000.00000" pt_clust_2="13000.00000" pt_clust_3="312.48281" pt_clust_4="44.74906"></scales>
<clustering>
<clus scale="   44.749">  1  6  2 -1</clus>
<clus scale="  312.483">  1  5  2 -1</clus>
<clus scale="  355.023">  1  3  2 -1</clus>
<clus scale="  355.023">  1  3  2 -1</clus>
</clustering>
</event>
<event>
 6   2  0.3464723E-02  0.4192145E+03  0.7816531E-02  0.1037322E+00
       21   -1    0    0  501  503  0.00000000000E+00  0.00000000000E+00  0.11558379191E+04  0.11558379191E+04  0.00000000000E+00 0. -1.
        2   -1    0    0  504    0  0.00000000000E+00  0.00000000000E+00 -0.14130640621E+04  0.14130640621E+04  0.00000000000E+00 0. -1.
  1000006    1    1    2  501    0 -0.11119545452E+01  0.21517485117E+03  0.52439553334E+03  0.66617724999E+03  0.35000000000E+03 0.  0.
 -1000006    1    1    2    0  502 -0.30707584365E+02 -0.24817332112E+03  0.47180662387E+03  0.63846256224E+03  0.35000000000E+03 0.  0.
       21    1    1    2  504  503  0.38212488295E+02  0.10623892940E+01 -0.65145968048E+02  0.75533569263E+02  0.00000000000E+00 0. -1.
        2    1    1    2  502    0 -0.63929493852E+01  0.31936080660E+02 -0.11882823322E+04  0.11887285998E+04  0.00000000000E+00 0. -1.
<scales pt_clust_1="13000.00000" pt_clust_2="13000.00000" pt_clust_3="37.86314" pt_clust_4="32.56966"></scales>
<clustering>
<clus scale="   32.570">  2  6  1 -1</clus>
<clus scale="   37.863">  2  5  1 -1</clus>
<clus scale="  419.214">  1  3  2 -1</clus>
<clus scale="  419.214">  1  3  2 -1</clus>
</clustering>
</event>
<event>
 4   0  0.3464723E-02  0.3684600E+03  0.7816531E-02  0.1055283E+00
       21   -1    0    0  501  502  0.00000000000E+00  0.00000000000E+00  0.20876284356E+03  0.20876284356E+03  0.00000000000E+00 0. -1.
       21   -1    0    0  502  503  0.00000000000E+00  0.00000000000E+00 -0.74265722869E+03  0.74265722869E+03  0.00000000000E+00 0. -1.
  1000006    1    1    2  501    0 -0.44177794591E+02 -0.10635356299E+03 -0.99207695161E+02  0.38158213359E+03  0.35000000000E+03 0.  0.
 -1000006    1    1    2    0  503  0.44177794591E+02  0.10635356299E+03 -0.43468668998E+03  0.56983793866E+03  0.35000000000E+03 0.  0.
<scales pt_clust_1="13000.00000" pt_clust_2="13000.00000"></scales>
<clustering>
<clus scale="  368.460">  1  3  2 -1</clus>
<clus scale="  368.460">  1  3  2 -1</clus>
</clustering>
</event>
<event>
 5   1  0.3464723E-02  0.4052720E+03  0.7816531E-02  0.1041969E+00
       21   -1    0    0  504  502  0.00000000000E+00  0.00000000000E+00  0.81309284515E+03  0.81309284515E+03  0.00000000000E+00 0.  1.
       21   -1    0    0  501  503  0.00000000000E+00  0.00000000000E+00 -0.33446567129E+03  0.33446567129E+03  0.00000000000E+00 0.  1.
  1000006    1    1    2  501    0 -0.19587558493E+03  0.79086757785E+02 -0.89334503236E+02  0.41845264188E+03  0.35000000000E+03 0.  0.
 -1000006    1    1    2    0  502  0.18036821811E+03 -0.40885327363E+02  0.42711994824E+03  0.58235363336E+03  0.35000000000E+03 0.  0.
       21    1    1    2  504  503  0.15507366825E+02 -0.38201430421E+02  0.14084172885E+03  0.14675224120E+03  0.00000000000E+00 0. -1.
<scales pt_clust_1="13000.00000" pt_clust_2="13000.00000" pt_clust_3="41.22897"></scales>
<clustering>
<clus scale="   41.229">  1  5  2 -1</clus>
<clus scale="  405.272">  2  3  1 -1</clus>
<clus scale="  405.272">  1  3  2 -1</clus>
</clustering>
</event>
<event>
 6   2  0.3464723E-02  0.3598682E+03  0.7816531E-02  0.1058636E+00
       21   -1    0    0  502  503  0.00000000000E+00  0.00000000000E+00  0.50018011763E+03  0.50018011763E+03  0.00000000000E+00 0. -1.
        1   -1    0    0  501    0  0.00000000000E+00  0.00000000000E+00 -0.20446480100E+04  0.20446480100E+04  0.00000000000E+00 0.  1.
  1000006    1    1    2  501    0  0.85950434834E+02 -0.85785393994E+01 -0.81703249416E+02  0.36964373328E+03  0.35000000000E+03 0.  0.
 -1000006    1    1    2    0  504  0.11649587475E+03 -0.14709111940E+03  0.62886595455E+02  0.40207189671E+03  0.35000000000E+03 0.  0.
       21    1    1    2  504  503 -0.54855516159E+02 -0.58870520657E+01  0.10990907614E+03  0.12297881953E+03  0.00000000000E+00 0.  1.
        1    1    1    2  502    0 -0.14759079342E+03  0.16155671086E+03 -0.16355603146E+04  0.16501336781E+04  0.00000000000E+00 0.  1.
<scales pt_clust_1="13000.00000" pt_clust_2="13000.00000" pt_clust_3="55.17051" pt_clust_4="219.44490"></scales>
<clustering>
<clus scale="   55.171">  1  5  2 -1</clus>
<clus scale="  219.445">  2  6  1 -1</clus>
<clus scale="  359.868">  1  4  2 -1</clus>
<clus scale="  359.868">  1  3  2 -1</clus>
</clustering>
</event>
<event>
 5   1  0.3464723E-02  0.3695906E+03  0.7816531E-02  0.1054850E+00
       21   -1    0    0  501  502  0.00000000000E+00  0.00000000000E+00  0.11837662109E+04  0.11837662109E+04  0.00000000000E+00 0. -1.
       21   -1    0    0  504  503  0.00000000000E+00  0.00000000000E+00 -0.13732661716E+03  0.13732661716E+03  0.00000000000E+00 0. -1.
  1000006    1    1    2  501    0 -0.96206122800E+02  0.36960073522E+02  0.49935521054E+03  0.61844748475E+03  0.35000000000E+03 0.  0.
 -1000006    1    1    2    0  503  0.13419253977E+03 -0.85902724304E+01  0.40065198269E+03  0.54872893285E+03  0.35000000000E+03 0.  0.
       21    1    1    2  504  502 -0.37986416974E+02 -0.28369801091E+02  0.14643240051E+03  0.15391641045E+03  0.00000000000E+00 0.  1.
<scales pt_clust_1="13000.00000" pt_clust_2="13000.00000" pt_clust_3="47.41111"></scales>
<clustering>
<clus scale="   47.411">  1  5  2 -1</clus>
<clus scale="  369.591">  2  4  1 -1</clus>
<clus scale="  369.591">  1  3  2 -1</clus>
</clustering>
</event>
<event>
 5   1  0.3464723E-02  0.5368010E+03  0.7816531E-02  0.1004596E+00
       21   -1    0    0  504  502  0.00000000000E+00  0.00000000000E+00  0.74691586406E+03  0.74691586406E+03  0.00000000000E+00 0. -1.
       21   -1    0    0  501  503  0.00000000000E+00  0.00000000000E+00 -0.75213398059E+03  0.75213398059E+03  0.00000000000E+00 0.  1.
  1000006    1    1    2  501    0 -0.19993377396E+03 -0.34792093501E+03 -0.29432622884E+03  0.60839988492E+03  0.35000000000E+03 0.  0.
 -1000006    1    1    2    0  502  0.14967672602E+03  0.39163042270E+03 -0.46849415826E+02  0.54815360808E+03  0.35000000000E+03 0.  0.
       21    1    1    2  504  503  0.50257047941E+02 -0.43709487689E+02  0.33595752813E+03  0.34249635164E+03  0.00000000000E+00 0. -1.
<scales pt_clust_1="13000.00000" pt_clust_2="13000.00000" pt_clust_3="66.60548"></scales>
<clustering>
<clus scale="   66.605">  1  5  2 -1</clus>
<clus scale="  536.801">  2  3  1 -1</clus>
<clus scale="  536.801">  1  3  2 -1</clus>
</clustering>
</event>
<event>
 4   0  0.3464723E-02  0.3837592E+03  0.7816531E-02  0.1049553E+00
       21   -1    0    0  501  502  0.00000000000E+00  0.00000000000E+00  0.31310378563E+03  0.31310378563E+03  0.00000000000E+00 0.  1.
       21   -1    0    0  502  503  0.00000000000E+00  0.00000000000E+00 -0.85315111487E+03  0.85315111487E+03  0.00000000000E+00 0.  1.
  1000006    1    1    2  501    0  0.15371242969E+03  0.33817554891E+02  0.12057619114E+03  0.40225583393E+03  0.35000000000E+03 0.  0.
 -1000006    1    1    2    0  503 -0.15371242969E+03 -0.33817554891E+02 -0.66062352037E+03  0.76399906657E+03  0.35000000000E+03 0.  0.
<scales pt_clust_1="13000.00000" pt_clust_2="13000.00000"></scales>
<clustering>
<clus scale="  383.759">  1  3  2 -1</clus>
<clus scale="  383.759">  1  3  2 -1</clus>
</clustering>
</event>
<event>
 6   2  0.3464723E-02  0.3607252E+03  0.7816531E-02  0.1058297E+00
       21   -1    0    0  501  502  0.00000000000E+00  0.00000000000E+00  0.30645043430E+03  0.30645043430E+03  0.00000000000E+00 0. -1.
       21   -1    0    0  504  503  0.00000000000E+00  0.00000000000E+00 -0.17801005340E+04  0.17801005340E+04  0.00000000000E+00 0. -1.
  1000006    1    1    2  501    0  0.90081985087E+02  0.26710488288E+02 -0.13219060532E+03  0.38574936209E+03  0.35000000000E+03 0.  0.
 -1000006    1    1    2    0  503 -0.93411336147E+02 -0.18914627766E+02 -0.27555855078E+03  0.45553919235E+03  0.35000000000E+03 0.  0.
       21    1    1    2  504  505  0.80277960470E+02 -0.94436091265E+02 -0.11132176698E+04  0.11200965613E+04  0.00000000000E+00 0. -1.
       21    1    1    2  505  502 -0.76948609411E+02  0.86640230742E+02  0.47316726187E+02  0.12516585257E+03  0.00000000000E+00 0.  1.
<scales pt_clust_1="13000.00000" pt_clust_2="13000.00000" pt_clust_3="122.13701" pt_clust_4="115.87760"></scales>
<clustering>
<clus scale="  115.878">  1  6  2 -1</clus>
<clus scale="  122.137">  2  5  1 -1</clus>
<clus scale="  360.725">  1  3  2 -1</clus>
<clus scale="  360.725">  1  3  2 -1</clus>
</clustering>
</event>
<event>
 4   0  0.3464723E-02  0.3772794E+03  0.7816531E-02  0.1051944E+00
       21   -1    0    0  503  502  0.00000000000E+00  0.00000000000E+00  0.75050939887E+03  0.75050939887E+03  0.00000000000E+00 0.  1.
       21   -1    0    0  501  503  0.00000000000E+00  0.00000000000E+00 -0.66025653631E+03  0.66025653631E+03  0.00000000000E+00 0.  1.
  1000006    1    1    2  501    0 -0.78514918313E+02  0.11694092840E+03 -0.55039049286E+03  0.66728514727E+03  0.35000000000E+03 0.  0.
 -1000006    1    1    2    0  502  0.78514918313E+02 -0.11694092840E+03  0.64064335542E+03  0.74348078790E+03  0.35000000000E+03 0.  0.
<scales pt_clust_1="13000.00000" pt_clust_2="13000.00000"></scales>
<clustering>
<clus scale="  377.279">  2  3  1 -1</clus>
<clus scale="  377.279">  1  3  2 -1</clus>
</clustering>
</event>
<event>
 4   0  0.3464723E-02  0.4881699E+03  0.7816531E-02  0.1016914E+00
       21   -1    0    0  503  502  0.00000000000E+00  0.00000000000E+00  0.37579014054E+04  0.37579014054E+04  0.00000000000E+00 0.  1.
       21   -1    0    0  501  503  0.00000000000E+00  0.00000000000E+00 -0.63421281494E+02  0.63421281494E+02  0.00000000000E+00 0. -1.
  1000006    1    1    2  501    0  0.22900389491E+03 -0.25172824597E+03  0.18292925414E+04  0.18933095615E+04  0.35000000000E+03 0.  0.
 -1000006    1    1    2    0  502 -0.22900389491E+03  0.25172824597E+03  0.18651875826E+04  0.19280131254E+04  0.35000000000E+03 0.  0.
<scales pt_clust_1="13000.00000" pt_clust_2="13000.00000"></scales>
<clustering>
<clus scale="  488.170">  2  3  1 -1</clus>
<clus scale="  488.170">  1  3  2 -1</clus>
</clustering>
</event>
<event>
 6   2  0.3464723E-02  0.4609363E+03  0.7816531E-02  0.1024510E+00
       21   -1    0    0  504  503  0.00000000000E+00  0.00000000000E+00  0.80592538327E+03  0.80592538327E+03  0.00000000000E+00 0.  1.
        1   -1    0    0  501    0  0.00000000000E+00  0.00000000000E+00 -0.16994687335E+04  0.16994687335E+04  0.00000000000E+00 0. -1.
  1000006    1    1    2  501    0 -0.16941942448E+03  0.23530065958E+03 -0.42531748878E+03  0.62246631077E+03  0.35000000000E+03 0.  0.
 -1000006    1    1    2    0  503  0.24963648970E+03 -0.22693368117E+03  0.27376788670E+03  0.55791229457E+03  0.35000000000E+03 0.  0.
       21    1    1    2  504  502 -0.37978855404E+02  0.24690194136E+02  0.28904978217E+03  0.29257781139E+03  0.00000000000E+00 0.  1.
        1    1    1    2  502    0 -0.42238209819E+02 -0.33057172543E+02 -0.10310435303E+04  0.10324377000E+04  0.00000000000E+00 0. -1.
<scales pt_clust_1="13000.00000" pt_clust_2="13000.00000" pt_clust_3="45.29900" pt_clust_4="53.65612"></scales>
<clustering>
<clus scale="   45.299">  1  5  2 -1</clus>
<clus scale="   53.656">  2  6  1 -1</clus>
<clus scale="  460.936">  2  3  1 -1</clus>
<clus scale="  460.936">  1  3  2 -1</clus>
</clustering>
</event>
<event>
 5   1  0.3464723E-02  0.4182068E+03  0.7816531E-02  0.1037652E+00
       21   -1    0    0  501  502  0.00000000000E+00  0.00000000000E+00  0.11186892532E+03  0.11186892532E+03  0.00000000000E+00 0.  1.
       21   -1    0    0  504  503  0.00000000000E+00  0.00000000000E+00 -0.18902578125E+04  0.18902578125E+04  0.00000000000E+00 0.  1.
  1000006    1    1    2  501    0  0.22305431725E+03 -0.87912358758E+02 -0.87714431261E+03  0.97435309637E+03  0.35000000000E+03 0.  0.
 -1000006    1    1    2    0  503 -0.21483814723E+03  0.47917056204E+02 -0.89575712241E+03  0.98657604680E+03  0.35000000000E+03 0.  0.
       21    1    1    2  504  502 -0.82161700231E+01  0.39995302555E+02 -0.54874522125E+01  0.41197594688E+02  0.00000000000E+00 0. -1.
<scales pt_clust_1="13000.00000" pt_clust_2="13000.00000" pt_clust_3="40.83050"></scales>
<clustering>
<clus scale="   40.830">  1  5  2 -1</clus>
<clus scale="  418.207">  1  3  2 -1</clus>
<clus scale="  418.207">  1  3  2 -1</clus>
</clustering>
</event>
<event>
 6   2  0.3464723E-02  0.3535165E+03  0.7816531E-02  0.1061181E+00
       21   -1    0    0  504  502  0.00000000000E+00  0.00000000000E+00  0.41706416277E+03  0.41706416277E+03  0.00000000000E+00 0. -1.
       21   -1    0    0  501  503  0.00000000000E+00  0.00000000000E+00 -0.17915290882E+04  0.17915290882E+04  0.00000000000E+00 0. -1.
  1000006    1    1    2  501    0 -0.14737365799E+03 -0.16410541153E+02 -0.13451288060E+04  0.13978053532E+04  0.35000000000E+03 0.  0.
 -1000006    1    1    2    0  505  0.31293440305E+02  0.31269767422E+01  0.42490925051E+02  0.35396968246E+03  0.35000000000E+03 0.  0.
       21    1    1    2  504  503  0.11735255564E+03  0.55063296664E+02 -0.24580390864E+03  0.27789053682E+03  0.00000000000E+00 0. -1.
       21    1    1    2  505  502 -0.12723379514E+01 -0.41779732254E+02  0.17397686411E+03  0.17892767845E+03  0.00000000000E+00 0. -1.
<scales pt_clust_1="13000.00000" pt_clust_2="13000.00000" pt_clust_3="128.39260" pt_clust_4="41.79910"></scales>
<clustering>
<clus scale="   41.799">  1  6  2 -1</clus>
<clus scale="  128.393">  2  5  1 -1</clus>
<clus scale="  353.516">  2  3  1 -1</clus>
<clus scale="  353.516">  1  3  2 -1</clus>
</clustering>
</event>
<event>
 5   1  0.3464723E-02  0.4429933E+03  0.7816531E-02  0.1029832E+00
       21   -1    0    0  504  502  0.00000000000E+00  0.00000000000E+00  0.96493012041E+03  0.96493012041E+03  0.00000000000E+00 0.  1.
       21   -1    0    0  501  503  0.00000000000E+00  0.00000000000E+00 -0.97767646269E+03  0.97767646269E+03  0.00000000000E+00 0. -1.
  1000006    1    1    2  501    0  0.31043762360E+02 -0.26445674378E+03 -0.77810159952E+03  0.89378027707E+03  0.35000000000E+03 0.  0.
 -1000006    1    1    2    0  502 -0.82760291892E+02  0.29915638544E+03  0.25133909012E+03  0.53105098351E+03  0.35000000000E+03 0.  0.
       21    1    1    2  504  503  0.51716529532E+02 -0.34699641653E+02  0.51401616711E+03  0.51777532252E+03  0.00000000000E+00 0.  1.
<scales pt_clust_1="13000.00000" pt_clust_2="13000.00000" pt_clust_3="62.27893"></scales>
<clustering>
<clus scale="   62.279">  1  5  2 -1</clus>
<clus scale="  442.993">  2  3  1 -1</clus>
<clus scale="  442.993">  1  3  2 -1</clus>
</clustering>
</event>
<event>
 4   0  0.3464723E-02  0.3558367E+03  0.7816531E-02  0.1060245E+00
       21   -1    0    0  503  502  0.00000000000E+00  0.00000000000E+00  0.23546092711E+03  0.23546092711E+03  0.00000000000E+00 0.  1.
       21   -1    0    0  501  503  0.00000000000E+00  0.00000000000E+00 -0.88462113447E+03  0.88462113447E+03  0.00000000000E+00 0.  1.
  1000006    1    1    2  501    0  0.25434983904E+02  0.58930533495E+02 -0.67527027097E+03  0.76328872980E+03  0.35000000000E+03 0.  0.
 -1000006    1    1    2    0  502 -0.25434983904E+02 -0.58930533495E+02  0.26110063610E+02  0.35679333178E+03  0.35000000000E+03 0.  0.
<scales pt_clust_1="13000.00000" pt_clust_2="13000.00000"></scales>
<clustering>
<clus scale="  355.837">  2  3  1 -1</clus>
<clus scale="  355.837">  1  3  2 -1</clus>
</clustering>
</event>
<event>
 6   2  0.3464723E-02  0.3622851E+03  0.7816531E-02  0.1057683E+00
       21   -1    0    0  504  503  0.00000000000E+00  0.00000000000E+00  0.17576187803E+04  0.17576187803E+04  0.00000000000E+00 0.  1.
       21   -1    0    0  502  504  0.00000000000E+00  0.00000000000E+00 -0.34459252704E+03  0.34459252704E+03  0.00000000000E+00 0. -1.
  1000006    1    1    2  501    0 -0.54269431933E+02  0.76426283642E+02  0.20788474948E+03  0.41773462526E+03  0.35000000000E+03 0.  0.
 -1000006    1    1    2    0  503  0.32095248924E+02 -0.88468060304E+02  0.14126180394E+04  0.14583711557E+04  0.35000000000E+03 0.  0.
        2    1    1    2  502    0  0.97300861459E+01 -0.37523573391E+02 -0.88312676219E+02  0.96445953349E+02  0.00000000000E+00 0. -1.
       -2    1    1    2    0  501  0.12444096863E+02  0.49565350054E+02 -0.11916385941E+03  0.12965957297E+03  0.00000000000E+00 0.  1.
<scales pt_clust_1="13000.00000" pt_clust_2="13000.00000" pt_clust_3="38.76459" pt_clust_4="35.52190"></scales>
<clustering>
<clus scale="   38.765">  2  5  1 -1</clus>
<clus scale="   35.522">  2  6  1 -1</clus>
<clus scale="  362.285">  2  3  1 -1</clus>
<clus scale="  362.285">  1  3  2 -1</clus>
</clustering>
</event>
<event>
 4   0  0.3464723E-02  0.3753156E+03  0.7816531E-02  0.1052679E+00
       -1   -1    0    0    0  501  0.00000000000E+00  0.00000000000E+00  0.20154332152E+03  0.20154332152E+03  0.00000000000E+00 0.  1.
        1   -1    0    0  502    0  0.00000000000E+00  0.00000000000E+00 -0.75299256415E+03  0.75299256415E+03  0.00000000000E+00 0. -1.
  1000006    1    1    2  502    0  0.12079581195E+03 -0.61401605787E+02 -0.40362528420E+03  0.55115801312E+03  0.35000000000E+03 0.  0.
 -1000006    1    1    2    0  501 -0.12079581195E+03  0.61401605787E+02 -0.14782395844E+03  0.40337787255E+03  0.35000000000E+03 0.  0.
<scales pt_clust_1="13000.00000" pt_clust_2="13000.00000"></scales>
<clustering>
<clus scale="  489.431">  3  4 -1 -1</clus>
<clus scale="  375.316">  2  3  1 -1</clus>
</clustering>
</event>
<event>
 6   2  0.3464723E-02  0.3637332E+03  0.7816531E-02  0.1057115E+00
       21   -1    0    0  501  503  0.00000000000E+00  0.00000000000E+00  0.40690178064E+03  0.40690178064E+03  0.00000000000E+00 0. -1.
        1   -1    0    0  504    0  0.00000000000E+00  0.00000000000E+00 -0.18483535371E+04  0.18483535371E+04  0.00000000000E+00 0.  1.
  1000006    1    1    2  501    0  0.23318909117E+02  0.14986982549E+03  0.51530313682E+02  0.38491571719E+03  0.35000000000E+03 0.  0.
 -1000006    1    1    2    0  502 -0.22851582291E+02 -0.44497839449E+02 -0.11985862580E+02  0.35375968316E+03  0.35000000000E+03 0.  0.
       21    1    1    2  504  503  0.30118463641E+01 -0.47421852584E+02 -0.15568644538E+02  0.50002860056E+02  0.00000000000E+00 0.  1.
        1    1    1    2  502    0 -0.34791731893E+01 -0.57950133458E+02 -0.14654275630E+04  0.14665770573E+04  0.00000000000E+00 0.  1.
<scales pt_clust_1="13000.00000" pt_clust_2="13000.00000" pt_clust_3="47.51740" pt_clust_4="58.12403"></scales>
<clustering>
<clus scale="   47.517">  1  5  2 -1</clus>
<clus scale="   58.124">  2  6  1 -1</clus>
<clus scale="  363.733">  1  3  2 -1</clus>
<clus scale="  363.733">  1  3  2 -1</clus>
</clustering>
</event>
<event>
 6   2  0.3464723E-02  0.6664715E+03  0.7816531E-02  0.9776353E-01
       21   -1    0    0  504  502  0.00000000000E+00  0.00000000000E+00  0.34650208066E+03  0.34650208066E+03  0.00000000000E+00 0.  1.
       21   -1    0    0  501  503  0.00000000000E+00  0.00000000000E+00 -0.18750150092E+04  0.18750150092E+04  0.00000000000E+00 0. -1.
  1000006    1    1    2  501    0 -0.27908710200E+03  0.47435566508E+03 -0.78564534488E+03  0.10210981909E+04  0.35000000000E+03 0.  0.
 -1000006    1    1    2    0  502  0.27218882863E+03 -0.51782747824E+03 -0.82503297334E+03  0.10702389746E+04  0.35000000000E+03 0.  0.
       21    1    1    2  504  505  0.28089095569E+02  0.16041878200E+02  0.89136113764E+02  0.94823973356E+02  0.00000000000E+00 0.  1.
       21    1    1    2  505  503 -0.21190822195E+02  0.27429934959E+02 -0.69707240662E+01  0.35355951001E+02  0.00000000000E+00 0.  1.
<scales pt_clust_1="13000.00000" pt_clust_2="13000.00000" pt_clust_3="32.34717" pt_clust_4="34.45863"></scales>
<clustering>
<clus scale="   32.347">  1  5  2 -1</clus>
<clus scale="   34.459">  1  6  2 -1</clus>
<clus scale="  666.472">  1  4  2 -1</clus>
<clus scale="  666.472">  1  3  2 -1</clus>
</clustering>
</event>
<event>
 6   2  0.3464723E-02  0.3693257E+03  0.7816531E-02  0.1054951E+00
       21   -1    0    0  505  502  0.00000000000E+00  0.00000000000E+00  0.11828489145E+04  0.11828489145E+04  0.00000000000E+00 0. -1.
       21   -1    0    0  504  503  0.00000000000E+00  0.00000000000E+00 -0.18807463264E+03  0.18807463264E+03  0.00000000000E+00 0. -1.
  1000006    1    1    2  501    0  0.13725183894E+03 -0.33171503613E+02  0.40717358407E+03  0.55518352237E+03  0.35000000000E+03 0.  0.
 -1000006    1    1    2    0  503 -0.95529495802E+02  0.34071895453E+02  0.25030248327E+03  0.44208382888E+03  0.35000000000E+03 0.  0.
       21    1    1    2  504  502 -0.71546818273E+02  0.59038027773E+02  0.17433367712E+03  0.19747573751E+03  0.00000000000E+00 0.  1.
       21    1    1    2  505  501  0.29824475137E+02 -0.59938419613E+02  0.16296453736E+03  0.17618045834E+03  0.00000000000E+00 0. -1.
<scales pt_clust_1="13000.00000" pt_clust_2="13000.00000" pt_clust_3="81.69367" pt_clust_4="66.94859"></scales>
<clustering>
<clus scale="   66.949">  1  6  2 -1</clus>
<clus scale="   81.694">  1  5  2 -1</clus>
<clus scale="  369.326">  2  4  1 -1</clus>
<clus scale="  369.326">  1  3  2 -1</clus>
</clustering>
</event>
<event>
 5   1  0.3464723E-02  0.4133861E+03  0.7816531E-02  0.1039241E+00
       -1   -1    0    0    0  501  0.00000000000E+00  0.00000000000E+00  0.82008028547E+03  0.82008028547E+03  0.00000000000E+00 0. -1.
        1   -1    0    0  503    0  0.00000000000E+00  0.00000000000E+00 -0.39683342596E+03  0.39683342596E+03  0.00000000000E+00 0.  1.
  1000006    1    1    2  502    0 -0.15310242758E+03 -0.50217249502E+02  0.25656542583E+03  0.46291245740E+03  0.35000000000E+03 0.  0.
 -1000006    1    1    2    0  501  0.21680894226E+03  0.27593276649E+03  0.15451188163E+03  0.51915212668E+03  0.35000000000E+03 0.  0.
       21    1    1    2  503  502 -0.63706514683E+02 -0.22571551699E+03  0.12169552048E+02  0.23484912736E+03  0.00000000000E+00 0. -1.
<scales pt_clust_1="13000.00000" pt_clust_2="13000.00000" pt_clust_3="234.53361"></scales>
<clustering>
<clus scale="  234.534">  2  5  1 -1</clus>
<clus scale="  610.705">  3  4 -1 -1</clus>
<clus scale="  413.386">  2  3  1 -1</clus>
</clustering>
</event>
<event>
 6   2  0.3464723E-02  0.3866714E+03  0.7816531E-02  0.1048495E+00
       21   -1    0    0  504  502  0.00000000000E+00  0.00000000000E+00  0.42984601729E+03  0.42984601729E+03  0.00000000000E+00 0.  1.
       21   -1    0    0  505  503  0.00000000000E+00  0.00000000000E+00 -0.17468275661E+04  0.17468275661E+04  0.00000000000E+00 0.  1.
  1000006    1    1    2  501    0  0.20913520386E+03 -0.34439845484E+02 -0.79810936257E+02  0.41688538233E+03  0.35000000000E+03 0.  0.
 -1000006    1    1    2    0  502 -0.12814739938E+03  0.54030732970E+02  0.10956664144E+03  0.39223197854E+03  0.35000000000E+03 0.  0.
       21    1    1    2  504  503 -0.27081595933E+02  0.35200123982E+02 -0.12090668659E+04  0.12098822868E+04  0.00000000000E+00 0.  1.
       21    1    1    2  505  501 -0.53906208548E+02 -0.54791011468E+02 -0.13767038801E+03  0.15767393568E+03  0.00000000000E+00 0.  1.
<scales pt_clust_1="13000.00000" pt_clust_2="13000.00000" pt_clust_3="44.41240" pt_clust_4="76.15276"></scales>
<clustering>
<clus scale="   44.412">  2  5  1 -1</clus>
<clus scale="   76.153">  2  6  1 -1</clus>
<clus scale="  386.671">  1  4  2 -1</clus>
<clus scale="  386.671">  1  3  2 -1</clus>
</clustering>
</event>
<event>
 6   2  0.3464723E-02  0.3703796E+03  0.7816531E-02  0.1054548E+00
       21   -1    0    0  505  502  0.00000000000E+00  0.00000000000E+00  0.47004361561E+03  0.47004361561E+03  0.00000000000E+00 0. -1.
       21   -1    0    0  504  503  0.00000000000E+00  0.00000000000E+00 -0.92411865206E+03  0.92411865206E+03  0.00000000000E+00 0. -1.
  1000006    1    1    2  501    0  0.30939186349E+02  0.22522821779E+02 -0.10154025326E+03  0.36643544286E+03  0.35000000000E+03 0.  0.
 -1000006    1    1    2    0  502  0.79365177603E+01  0.20312305686E+03  0.17206064378E+03  0.43980317152E+03  0.35000000000E+03 0.  0.
       21    1    1    2  504  501  0.31039674241E+02 -0.23227941902E+01 -0.53117975710E+02  0.61566030352E+02  0.00000000000E+00 0.  1.
       21    1    1    2  505  503 -0.69915378351E+02 -0.22332308444E+03 -0.47147745126E+03  0.52635762294E+03  0.00000000000E+00 0. -1.
<scales pt_clust_1="13000.00000" pt_clust_2="13000.00000" pt_clust_3="31.12646" pt_clust_4="230.61059"></scales>
<clustering>
<clus scale="   31.126">  2  5  1 -1</clus>
<clus scale="  230.611">  2  6  1 -1</clus>
<clus scale="  370.380">  1  4  2 -1</clus>
<clus scale="  370.380">  1  3  2 -1</clus>
</clustering>
</event>
<event>
 5   1  0.3464723E-02  0.3526492E+03  0.7816531E-02  0.1061533E+00
        2   -1    0    0  501    0  0.00000000000E+00  0.00000000000E+00  0.32304312834E+04  0.32304312834E+04  0.00000000000E+00 0.  1.
       21   -1    0    0  502  503  0.00000000000E+00  0.00000000000E+00 -0.11108415953E+03  0.11108415953E+03  0.00000000000E+00 0.  1.
  1000006    1    1    2  501    0  0.49041497074E+02 -0.41752490400E+02  0.10171487429E+04  0.10776084188E+04  0.35000000000E+03 0.  0.
 -1000006    1    1    2    0  503 -0.17507954322E+02  0.31789228665E+02  0.30285840593E+03  0.46426317705E+03  0.35000000000E+03 0.  0.
        2    1    1    2  502    0 -0.31533542752E+02  0.99632617349E+01  0.17993399750E+04  0.17996438471E+04  0.00000000000E+00 0.  1.
<scales pt_clust_1="13000.00000" pt_clust_2="13000.00000" pt_clust_3="33.07009"></scales>
<clustering>
<clus scale="   33.070">  1  5  2 -1</clus>
<clus scale="  352.649">  2  4  1 -1</clus>
<clus scale="  352.649">  2  3  1 -1</clus>
</clustering>
</event>
<event>
 5   1  0.3464723E-02  0.4303766E+03  0.7816531E-02  0.1033741E+00
       21   -1    0    0  503  502  0.00000000000E+00  0.00000000000E+00  0.47102388269E+03  0.47102388269E+03  0.00000000000E+00 0.  1.
       21   -1    0    0  504  503  0.00000000000E+00  0.00000000000E+00 -0.49941920317E+03  0.49941920317E+03  0.00000000000E+00 0. -1.
  1000006    1    1    2  501    0 -0.94307167233E+02  0.22442733826E+03 -0.31338134900E+02  0.42748514670E+03  0.35000000000E+03 0.  0.
 -1000006    1    1    2    0  502  0.13615686763E+03 -0.21821161155E+03  0.92342761690E+02  0.44405200783E+03  0.35000000000E+03 0.  0.
       21    1    1    2  504  501 -0.41849700396E+02 -0.62157267037E+01 -0.89399947264E+02  0.98905931332E+02  0.00000000000E+00 0. -1.
<scales pt_clust_1="13000.00000" pt_clust_2="13000.00000" pt_clust_3="42.30878"></scales>
<clustering>
<clus scale="   42.309">  2  5  1 -1</clus>
<clus scale="  430.377">  2  3  1 -1</clus>
<clus scale="  430.377">  1  3  2 -1</clus>
</clustering>
</event>
<event>
 6   2  0.3464723E-02  0.4389457E+03  0.7816531E-02  0.1031071E+00
       21   -1    0    0  505  502  0.00000000000E+00  0.00000000000E+00  0.16420591859E+04  0.16420591859E+04  0.00000000000E+00 0.  1.
       21   -1    0    0  501  503  0.00000000000E+00  0.00000000000E+00 -0.19285335504E+03  0.19285335504E+03  0.00000000000E+00 0.  1.
  1000006    1    1    2  501    0  0.14353946200E+03  0.23642022470E+03  0.70013451169E+03  0.83017253283E+03  0.35000000000E+03 0.  0.
 -1000006    1    1    2    0  502 -0.12743817575E+03 -0.21979763189E+03  0.65882916803E+03  0.78810364818E+03  0.35000000000E+03 0.  0.
       21    1    1    2  504  503 -0.18419926499E+00 -0.52321387500E+02 -0.49199428632E+02  0.71820229023E+02  0.00000000000E+00 0.  1.
       21    1    1    2  505  504 -0.15917086984E+02  0.35698794687E+02  0.13944157974E+03  0.14481613087E+03  0.00000000000E+00 0. -1.
<scales pt_clust_1="13000.00000" pt_clust_2="13000.00000" pt_clust_3="52.05309" pt_clust_4="39.08654"></scales>
<clustering>
<clus scale="   39.087">  1  6  2 -1</clus>
<clus scale="   52.053">  2  5  1 -1</clus>
<clus scale="  438.946">  1  4  2 -1</clus>
<clus scale="  438.946">  1  3  2 -1</clus>
</clustering>
</event>
<event>
 4   0  0.3464723E-02  0.3527907E+03  0.7816531E-02  0.1061475E+00
       21   -1    0    0  503  502  0.00000000000E+00  0.00000000000E+00  0.99491638810E+02  0.99491638810E+02  0.00000000000E+00 0. -1.
       21   -1    0    0  501  503  0.00000000000E+00  0.00000000000E+00 -0.12622468793E+04  0.12622468793E+04  0.00000000000E+00 0. -1.
  1000006    1    1    2  501    0  0.20578143937E+02  0.39214612482E+02 -0.64572771317E+03  0.73581623072E+03  0.35000000000E+03 0.  0.
 -1000006    1    1    2    0  502 -0.20578143937E+02 -0.39214612482E+02 -0.51702752732E+03  0.62592228739E+03  0.35000000000E+03 0.  0.
<scales pt_clust_1="13000.00000" pt_clust_2="13000.00000"></scales>
<clustering>
<clus scale="  352.791">  2  3  1 -1</clus>
<clus scale="  352.791">  1  3  2 -1</clus>
</clustering>
</event>
<event>
 6   2  0.3464723E-02  0.4594034E+03  0.7816531E-02  0.1024954E+00
       21   -1    0    0  504  502  0.00000000000E+00  0.00000000000E+00  0.10561937764E+04  0.10561937764E+04  0.00000000000E+00 0. -1.
       21   -1    0    0  501  503  0.00000000000E+00  0.00000000000E+00 -0.10658309363E+04  0.10658309363E+04  0.00000000000E+00 0. -1.
  1000006    1    1    2  501    0 -0.18594564562E+03 -0.33154060791E+03 -0.55940043595E+03  0.76152728485E+03  0.35000000000E+03 0.  0.
 -1000006    1    1    2    0  505  0.21255647738E+03  0.92133668343E+02 -0.24745092008E+03  0.48723795702E+03  0.35000000000E+03 0.  0.
       21    1    1    2  504  503 -0.46376143743E+02  0.20747737975E+03  0.26507781301E+03  0.33979973038E+03  0.00000000000E+00 0. -1.
       21    1    1    2  505  502  0.19765311991E+02  0.31929559816E+02  0.53213638317E+03  0.53345974041E+03  0.00000000000E+00 0. -1.
<scales pt_clust_1="13000.00000" pt_clust_2="13000.00000" pt_clust_3="228.61563" pt_clust_4="37.55216"></scales>
<clustering>
<clus scale="   37.552">  1  6  2 -1</clus>
<clus scale="  228.616">  1  5  2 -1</clus>
<clus scale="  459.403">  1  4  2 -1</clus>
<clus scale="  459.403">  1  3  2 -1</clus>
</clustering>
</event>
<event>
 5   1  0.3464723E-02  0.3520888E+03  0.7816531E-02  0.1061761E+00
       21   -1    0    0  504  502  0.00000000000E+00  0.00000000000E+00  0.12890841917E+03  0.12890841917E+03  0.00000000000E+00 0. -1.
       21   -1    0    0  501  503  0.00000000000E+00  0.00000000000E+00 -0.16906144625E+04  0.16906144625E+04  0.00000000000E+00 0. -1.
  1000006    1    1    2  501    0  0.49591319039E+02  0.68430485427E+01 -0.84647026176E+03  0.91734291859E+03  0.35000000000E+03 0.  0.
 -1000006    1    1    2    0  502 -0.17530812608E+02 -0.28390898860E+02 -0.76338039191E+03  0.84045404115E+03  0.35000000000E+03 0.  0.
       21    1    1    2  504  503 -0.32060506430E+02  0.21547850318E+02  0.48144610373E+02  0.61725921896E+02  0.00000000000E+00 0. -1.
<scales pt_clust_1="13000.00000" pt_clust_2="13000.00000" pt_clust_3="38.62882"></scales>
<clustering>
<clus scale="   38.629">  1  5  2 -1</clus>
<clus scale="  352.089">  2  3  1 -1</clus>
<clus scale="  352.089">  1  3  2 -1</clus>
</clustering>
</event>
<event>
 6   2  0.3464723E-02  0.3830216E+03  0.7816531E-02  0.1049823E+00
       21   -1    0    0  501  503  0.00000000000E+00  0.00000000000E+00  0.18876184818E+04  0.18876184818E+04  0.00000000000E+00 0. -1.
        1   -1    0    0  504    0  0.00000000000E+00  0.00000000000E+00 -0.57328760151E+03  0.57328760151E+03  0.00000000000E+00 0.  1.
  1000006    1    1    2  501    0  0.89416555716E+02 -0.15274856036E+03  0.16000948303E+04  0.16474619598E+04  0.35000000000E+03 0.  0.
 -1000006    1    1    2    0  502 -0.80477523718E+02 -0.14923281614E+03 -0.11981750839E+03  0.40694385430E+03  0.35000000000E+03 0.  0.
       21    1    1    2  504  503  0.52345212415E+01  0.43620139751E+02 -0.13967368885E+03  0.14642013578E+03  0.00000000000E+00 0.  1.
        1    1    1    2  502    0 -0.14173553240E+02  0.25836123674E+03 -0.26272752759E+02  0.26008013342E+03  0.00000000000E+00 0.  1.
<scales pt_clust_1="13000.00000" pt_clust_2="13000.00000" pt_clust_3="43.93309" pt_clust_4="273.16027"></scales>
<clustering>
<clus scale="   43.933">  2  5  1 -1</clus>
<clus scale="  273.160">  2  6  1 -1</clus>
<clus scale="  383.022">  2  4  1 -1</clus>
<clus scale="  383.022">  1  3  2 -1</clus>
</clustering>
</event>
<event>
 5   1  0.3464723E-02  0.3673077E+03  0.7816531E-02  0.1055727E+00
       21   -1    0    0  501  502  0.00000000000E+00  0.00000000000E+00  0.39785369589E+03  0.39785369589E+03  0.00000000000E+00 0.  1.
       21   -1    0    0  504  503  0.00000000000E+00  0.00000000000E+00 -0.59472057382E+03  0.59472057382E+03  0.00000000000E+00 0.  1.
  1000006    1    1    2  501    0  0.15921219936E+03  0.12714540568E+03  0.13070355255E+02  0.40519786870E+03  0.35000000000E+03 0.  0.
 -1000006    1    1    2    0  503 -0.15145334032E+02 -0.78293247777E+02 -0.24066577802E+03  0.43217962759E+03  0.35000000000E+03 0.  0.
       21    1    1    2  504  502 -0.14406686533E+03 -0.48852157899E+02  0.30728544836E+02  0.15519677343E+03  0.00000000000E+00 0.  1.
<scales pt_clust_1="13000.00000" pt_clust_2="13000.00000" pt_clust_3="152.12427"></scales>
<clustering>
<clus scale="  152.124">  1  5  2 -1</clus>
<clus scale="  367.308">  2  4  1 -1</clus>
<clus scale="  367.308">  1  3  2 -1</clus>
</clustering>
</event>
<event>
 6   2  0.3464723E-02  0.4211150E+03  0.7816531E-02  0.1036704E+00
       21   -1    0    0  502  503  0.00000000000E+00  0.00000000000E+00  0.29198931338E+03  0.29198931338E+03  0.00000000000E+00 0. -1.
        1   -1    0    0  504    0  0.00000000000E+00  0.00000000000E+00 -0.22499305189E+04  0.22499305189E+04  0.00000000000E+00 0. -1.
  1000006    1    1    2  501    0  0.21192971687E+03 -0.28813104514E+01 -0.36632714535E+03  0.54919767321E+03  0.35000000000E+03 0.  0.
 -1000006    1    1    2    0  503 -0.24202419887E+03 -0.61386371057E+02 -0.85493049784E+02  0.43835266732E+03  0.35000000000E+03 0.  0.
       21    1    1    2  504  501  0.59515217240E+02  0.11625788881E+03 -0.15829381573E+03  0.20521912652E+03  0.00000000000E+00 0. -1.
        1    1    1    2  502    0 -0.29420735244E+02 -0.51990207298E+02 -0.13478271947E+04  0.13491503653E+04  0.00000000000E+00 0. -1.
<scales pt_clust_1="13000.00000" pt_clust_2="13000.00000" pt_clust_3="118.57294" pt_clust_4="59.73744"></scales>
<clustering>
<clus scale="   59.737">  2  6  1 -1</clus>
<clus scale="  118.573">  2  5  1 -1</clus>
<clus scale="  421.115">  1  4  2 -1</clus>
<clus scale="  421.115">  1  3  2 -1</clus>
</clustering>
</event>
<event>
 4   0  0.3464723E-02  0.4948197E+03  0.7816531E-02  0.1015140E+00
       21   -1    0    0  503  502  0.00000000000E+00  0.00000000000E+00  0.41137140648E+03  0.41137140648E+03  0.00000000000E+00 0.  1.
       21   -1    0    0  501  503  0.00000000000E+00  0.00000000000E+00 -0.77828480862E+03  0.77828480862E+03  0.00000000000E+00 0. -1.
  1000006    1    1    2  501    0 -0.32751973047E+03  0.12278976985E+03 -0.47196176078E+03  0.68380874889E+03  0.35000000000E+03 0.  0.
 -1000006    1    1    2    0  502  0.32751973047E+03 -0.12278976985E+03  0.10504835863E+03  0.50584746621E+03  0.35000000000E+03 0.  0.
<scales pt_clust_1="13000.00000" pt_clust_2="13000.00000"></scales>
<clustering>
<clus scale="  494.820">  2  3  1 -1</clus>
<clus scale="  494.820">  1  3  2 -1</clus>
</clustering>
</event>
<event>
 6   2  0.3464723E-02  0.3598359E+03  0.7816531E-02  0.1058649E+00
       21   -1    0    0  504  502  0.00000000000E+00  0.00000000000E+00  0.11860912063E+03  0.11860912063E+03  0.00000000000E+00 0.  1.
       21   -1    0    0  501  503  0.00000000000E+00  0.00000000000E+00 -0.16197990496E+04  0.16197990496E+04  0.00000000000E+00 0.  1.
  1000006    1    1    2  501    0  0.91017818157E+02  0.60540471304E+02 -0.70386932979E+03  0.79365069477E+03  0.35000000000E+03 0.  0.
 -1000006    1    1    2    0  505  0.87627491967E+01 -0.84246446614E+02 -0.48813256943E+03  0.60658688980E+03  0.35000000000E+03 0.  0.
       21    1    1    2  504  503 -0.38070961249E+02  0.72300739508E+01 -0.24344502161E+03  0.24650994017E+03  0.00000000000E+00 0.  1.
       21    1    1    2  505  502 -0.61709606105E+02  0.16475901359E+02 -0.65743008125E+02  0.91660645473E+02  0.00000000000E+00 0.  1.
<scales pt_clust_1="13000.00000" pt_clust_2="13000.00000" pt_clust_3="38.75141" pt_clust_4="66.08379"></scales>
<clustering>
<clus scale="   38.751">  2  5  1 -1</clus>
<clus scale="   66.084">  1  6  2 -1</clus>
<clus scale="  359.836">  2  3  1 -1</clus>
<clus scale="  359.836">  1  3  2 -1</clus>
</clustering>
</event>
<event>
 5   1  0.3464723E-02  0.3626219E+03  0.7816531E-02  0.1057551E+00
       21   -1    0    0  501  502  0.00000000000E+00  0.00000000000E+00  0.93180655205E+03  0.93180655205E+03  0.00000000000E+00 0. -1.
       21   -1    0    0  504  503  0.00000000000E+00  0.00000000000E+00 -0.20283547385E+03  0.20283547385E+03  0.00000000000E+00 0. -1.
  1000006    1    1    2  501    0  0.69988956545E+01 -0.97116502718E+02  0.62749188020E+03  0.72507010651E+03  0.35000000000E+03 0.  0.
 -1000006    1    1    2    0  503 -0.38576538807E+02  0.83467102746E+02  0.86624601652E+02  0.37210042757E+03  0.35000000000E+03 0.  0.
       21    1    1    2  504  502  0.31577643152E+02  0.13649399972E+02  0.14854596347E+02  0.37471491821E+02  0.00000000000E+00 0.  1.
<scales pt_clust_1="13000.00000" pt_clust_2="13000.00000" pt_clust_3="34.40136"></scales>
<clustering>
<clus scale="   34.401">  2  5  1 -1</clus>
<clus scale="  362.622">  1  3  2 -1</clus>
<clus scale="  362.622">  1  3  2 -1</clus>
</clustering>
</event>
<event>
 5   1  0.3464723E-02  0.3744052E+03  0.7816531E-02  0.1053021E+00
       21   -1    0    0  503  502  0.00000000000E+00  0.00000000000E+00  0.16418812081E+03  0.16418812081E+03  0.00000000000E+00 0.  1.
       21   -1    0    0  501  503  0.00000000000E+00  0.00000000000E+00 -0.11395385939E+04  0.11395385939E+04  0.00000000000E+00 0.  1.
  1000006    1    1    2  501    0  0.78114819498E+02 -0.12008692980E+03 -0.74176494349E+03  0.83260916830E+03  0.35000000000E+03 0.  0.
 -1000006    1    1    2    0  504 -0.39897310678E+02  0.10351295798E+03 -0.21524578484E+03  0.42560248561E+03  0.35000000000E+03 0.  0.
       21    1    1    2  504  502 -0.38217508820E+02  0.16573971827E+02 -0.18339744781E+02  0.45515060817E+02  0.00000000000E+00 0.  1.
<scales pt_clust_1="13000.00000" pt_clust_2="13000.00000" pt_clust_3="41.65663"></scales>
<clustering>
<clus scale="   41.657">  1  5  2 -1</clus>
<clus scale="  374.405">  2  3  1 -1</clus>
<clus scale="  374.405">  1  3  2 -1</clus>
</clustering>
</event>
<event>
 5   1  0.3464723E-02  0.5052572E+03  0.7816531E-02  0.1012416E+00
       21   -1    0    0  504  502  0.00000000000E+00  0.00000000000E+00  0.79942058409E+03  0.79942058409E+03  0.00000000000E+00 0. -1.
       21   -1    0    0  501  503  0.00000000000E+00  0.00000000000E+00 -0.47404994866E+03  0.47404994866E+03  0.00000000000E+00 0. -1.
  1000006    1    1    2  501    0  0.31036619072E+02 -0.30245047841E+03  0.58171756412E+02  0.46725102125E+03  0.35000000000E+03 0.  0.
 -1000006    1    1    2    0  502 -0.13626304124E+02  0.43717421246E+03  0.66850599921E+02  0.56415952612E+03  0.35000000000E+03 0.  0.
       21    1    1    2  504  503 -0.17410314948E+02 -0.13472373405E+03  0.20034827910E+03  0.24205998538E+03  0.00000000000E+00 0. -1.
<scales pt_clust_1="13000.00000" pt_clust_2="13000.00000" pt_clust_3="135.84404"></scales>
<clustering>
<clus scale="  135.844">  1  5  2 -1</clus>
<clus scale="  505.257">  2  3  1 -1</clus>
<clus scale="  505.257">  1  3  2 -1</clus>
</clustering>
</event>
<event>
 5   1  0.3464723E-02  0.6284386E+03  0.7816531E-02  0.9848101E-01
       21   -1    0    0  503  502  0.00000000000E+00  0.00000000000E+00  0.16264597142E+04  0.16264597142E+04  0.00000000000E+00 0. -1.
       21   -1    0    0  501  503  0.00000000000E+00  0.00000000000E+00 -0.36701321403E+03  0.36701321403E+03  0.00000000000E+00 0. -1.
  1000006    1    1    2  501    0  0.54110494280E+03 -0.11495891413E+02  0.13888179494E+03  0.65932910418E+03  0.35000000000E+03 0.  0.
 -1000006    1    1    2    0  504 -0.48093085405E+03 -0.21902949073E+02  0.75120634806E+03  0.95842850694E+03  0.35000000000E+03 0.  0.
       21    1    1    2  504  502 -0.60174088752E+02  0.33398840487E+02  0.36935835718E+03  0.37571531712E+03  0.00000000000E+00 0. -1.
<scales pt_clust_1="13000.00000" pt_clust_2="13000.00000" pt_clust_3="68.82153"></scales>
<clustering>
<clus scale="   68.822">  1  5  2 -1</clus>
<clus scale="  628.439">  2  3  1 -1</clus>
<clus scale="  628.439">  1  3  2 -1</clus>
</clustering>
</event>
<event>
 6   2  0.3464723E-02  0.3685244E+03  0.7816531E-02  0.1055259E+00
       21   -1    0    0  505  502  0.00000000000E+00  0.00000000000E+00  0.17011553946E+03  0.17011553946E+03  0.00000000000E+00 0.  1.
       21   -1    0    0  501  503  0.00000000000E+00  0.00000000000E+00 -0.13815710392E+04  0.13815710392E+04  0.00000000000E+00 0.  1.
  1000006    1    1    2  501    0 -0.17191497740E+02  0.96961053882E+02 -0.74749827288E+03  0.83123442032E+03  0.35000000000E+03 0.  0.
 -1000006    1    1    2    0  502  0.45332925712E+02 -0.13366960096E+03 -0.51394798930E+03  0.63762463258E+03  0.35000000000E+03 0.  0.
       21    1    1    2  504  503 -0.32555005591E+02  0.68262321694E+01  0.14676867029E+02  0.36357066170E+02  0.00000000000E+00 0.  1.
       21    1    1    2  505  504  0.44135776195E+01  0.29882314905E+02  0.35313895368E+02  0.46470459623E+02  0.00000000000E+00 0.  1.
<scales pt_clust_1="13000.00000" pt_clust_2="13000.00000" pt_clust_3="34.14407" pt_clust_4="30.20650"></scales>
<clustering>
<clus scale="   30.206">  1  6  2 -1</clus>
<clus scale="   34.144">  1  5  2 -1</clus>
<clus scale="  368.524">  2  3  1 -1</clus>
<clus scale="  368.524">  1  3  2 -1</clus>
</clustering>
</event>
<event>
 5   1  0.3464723E-02  0.5458438E+03  0.7816531E-02  0.1002461E+00
       21   -1    0    0  504  502  0.00000000000E+00  0.00000000000E+00  0.95920812807E+03  0.95920812807E+03  0.00000000000E+00 0. -1.
       21   -1    0    0  501  503  0.00000000000E+00  0.00000000000E+00 -0.61264778223E+03  0.61264778223E+03  0.00000000000E+00 0. -1.
  1000006    1    1    2  501    0  0.21118171249E+03  0.38227291504E+03 -0.33858449964E+03  0.65411754346E+03  0.35000000000E+03 0.  0.
 -1000006    1    1    2    0  502 -0.13402633371E+03 -0.31104027399E+03  0.63794112305E+03  0.80260699390E+03  0.35000000000E+03 0.  0.
       21    1    1    2  504  503 -0.77155378779E+02 -0.71232641049E+02  0.47203722429E+02  0.11513137295E+03  0.00000000000E+00 0. -1.
<scales pt_clust_1="13000.00000" pt_clust_2="13000.00000" pt_clust_3="105.00972"></scales>
<clustering>
<clus scale="  105.010">  1  5  2 -1</clus>
<clus scale="  545.844">  1  4  2 -1</clus>
<clus scale="  545.844">  1  3  2 -1</clus>
</clustering>
</event>
<event>
 5   1  0.3464723E-02  0.3559846E+03  0.7816531E-02  0.1060185E+00
       21   -1    0    0  501  502  0.00000000000E+00  0.00000000000E+00  0.61235092370E+03  0.61235092370E+03  0.00000000000E+00 0.  1.
       21   -1    0    0  504  503  0.00000000000E+00  0.00000000000E+00 -0.24016499142E+03  0.24016499142E+03  0.00000000000E+00 0.  1.
  1000006    1    1    2  501    0  0.32398611412E+02 -0.45498186490E+02  0.25477277857E+03  0.43649618978E+03  0.35000000000E+03 0.  0.
 -1000006    1    1    2    0  503 -0.65703367728E+02  0.45766710111E+02  0.12783541951E+03  0.38112126517E+03  0.35000000000E+03 0.  0.
       21    1    1    2  504  502  0.33304756316E+02 -0.26852362090E+00 -0.10422265794E+02  0.34898460174E+02  0.00000000000E+00 0. -1.
<scales pt_clust_1="13000.00000" pt_clust_2="13000.00000" pt_clust_3="33.30584"></scales>
<clustering>
<clus scale="   33.306">  2  5  1 -1</clus>
<clus scale="  355.985">  2  4  1 -1</clus>
<clus scale="  355.985">  1  3  2 -1</clus>
</clustering>
</event>
<event>
 5   1  0.3464723E-02  0.6290395E+03  0.7816531E-02  0.9846925E-01
       21   -1    0    0  504  502  0.00000000000E+00  0.00000000000E+00  0.38921588929E+03  0.38921588929E+03  0.00000000000E+00 0.  1.
       21   -1    0    0  501  503  0.00000000000E+00  0.00000000000E+00 -0.13943046856E+04  0.13943046856E+04  0.00000000000E+00 0. -1.
  1000006    1    1    2  501    0 -0.44387899742E+03 -0.22069813007E+03 -0.89787501094E+03  0.10837046481E+04  0.35000000000E+03 0.  0.
 -1000006    1    1    2    0  502  0.48388246621E+03  0.22183334705E+03 -0.62988633316E+02  0.64017172922E+03  0.35000000000E+03 0.  0.
       21    1    1    2  504  503 -0.40003468794E+02 -0.11352169864E+01 -0.44225152014E+02  0.59644197570E+02  0.00000000000E+00 0.  1.
<scales pt_clust_1="13000.00000" pt_clust_2="13000.00000" pt_clust_3="40.01957"></scales>
<clustering>
<clus scale="   40.020">  2  5  1 -1</clus>
<clus scale="  629.039">  2  3  1 -1</clus>
<clus scale="  629.039">  1  3  2 -1</clus>
</clustering>
</event>
<event>
 6   2  0.3464723E-02  0.5933526E+03  0.7816531E-02  0.1006907E+00
       21   -1    0    0  504  502  0.00000000000E+00  0.00000000000E+00  0.91836222577E+03  0.91836222577E+03  0.00000000000E+00 0.  1.
       21   -1    0    0  501  503  0.00000000000E+00  0.00000000000E+00 -0.85378998660E+03  0.85378998660E+03  0.00000000000E+00 0.  1.
  1000006    1    1    2  501    0  0.13157217212E+03 -0.64343864119E+00 -0.96316887096E+02  0.38611992079E+03  0.35000000000E+03 0.  0.
 -1000006    1    1    2    0  505 -0.42749891576E+03  0.33598754466E+03 -0.24829111691E+03  0.69266978560E+03  0.35000000000E+03 0.  0.
       21    1    1    2  504  503  0.36748441901E+03 -0.31273352255E+03  0.37384110149E+03  0.61041315804E+03  0.00000000000E+00 0.  1.
       21    1    1    2  505  502 -0.71557675367E+02 -0.22610583465E+02  0.35339141684E+02  0.82949347939E+02  0.00000000000E+00 0. -1.
<scales pt_clust_1="13000.00000" pt_clust_2="13000.00000" pt_clust_3="479.13188" pt_clust_4="75.04492"></scales>
<clustering>
<clus scale="   75.045">  1  6  2 -1</clus>
<clus scale="  369.866">  2  3  1 -1</clus>
<clus scale="  479.132">  1  5  2 -1</clus>
<clus scale="  593.353">  1  3  2 -1</clus>
</clustering>
</event>
<event>
 5   1  0.3464723E-02  0.3763919E+03  0.7816531E-02  0.1052275E+00
       21   -1    0    0  501  502  0.00000000000E+00  0.00000000000E+00  0.27787872343E+04  0.27787872343E+04  0.00000000000E+00 0. -1.
       21   -1    0    0  504  503  0.00000000000E+00  0.00000000000E+00 -0.99085297338E+02  0.99085297338E+02  0.00000000000E+00 0. -1.
  1000006    1    1    2  501    0  0.21750237528E+02  0.97699353212E+02  0.11340504066E+04  0.11910451550E+04  0.35000000000E+03 0.  0.
 -1000006    1    1    2    0  503  0.17485469387E+03 -0.89205584937E+02  0.60620524890E+03  0.72699147460E+03  0.35000000000E+03 0.  0.
       21    1    1    2  504  502 -0.19660493140E+03 -0.84937682749E+01  0.93944628145E+03  0.95983590206E+03  0.00000000000E+00 0. -1.
<scales pt_clust_1="13000.00000" pt_clust_2="13000.00000" pt_clust_3="196.78832"></scales>
<clustering>
<clus scale="  196.788">  1  5  2 -1</clus>
<clus scale="  376.392">  2  4  1 -1</clus>
<clus scale="  376.392">  1  3  2 -1</clus>
</clustering>
</event>
<event>
 5   1  0.3464723E-02  0.3805388E+03  0.7816531E-02  0.1050735E+00
       21   -1    0    0  501  502  0.00000000000E+00  0.00000000000E+00  0.83787038292E+03  0.83787038292E+03  0.00000000000E+00 0.  1.
       21   -1    0    0  504  503  0.00000000000E+00  0.00000000000E+00 -0.10105000626E+04  0.10105000626E+04  0.00000000000E+00 0.  1.
  1000006    1    1    2  501    0 -0.26364535019E+02  0.15014786262E+03  0.71688072794E+03  0.81219298658E+03  0.35000000000E+03 0.  0.
 -1000006    1    1    2    0  503 -0.59252815053E+02 -0.12640210432E+03 -0.44607041924E+03  0.58392397364E+03  0.35000000000E+03 0.  0.
       21    1    1    2  504  502  0.85617350073E+02 -0.23745758300E+02 -0.44343998838E+03  0.45225348530E+03  0.00000000000E+00 0.  1.
<scales pt_clust_1="13000.00000" pt_clust_2="13000.00000" pt_clust_3="88.84926"></scales>
<clustering>
<clus scale="   88.849">  2  5  1 -1</clus>
<clus scale="  380.539">  1  3  2 -1</clus>
<clus scale="  380.539">  1  3  2 -1</clus>
</clustering>
</event>
<event>
 6   2  0.3464723E-02  0.4107471E+03  0.7816531E-02  0.1040121E+00
        2   -1    0    0  501    0  0.00000000000E+00  0.00000000000E+00  0.15554244470E+04  0.15554244470E+04  0.00000000000E+00 0. -1.
       21   -1    0    0  504  503  0.00000000000E+00  0.00000000000E+00 -0.11043709828E+04  0.11043709828E+04  0.00000000000E+00 0. -1.
  1000006    1    1    2  501    0 -0.34974328406E+03  0.68559615312E+02  0.47207556150E+02  0.50174628943E+03  0.35000000000E+03 0.  0.
 -1000006    1    1    2    0  503  0.18618479840E+03 -0.44673230110E+02 -0.82515098044E+03  0.91653402401E+03  0.35000000000E+03 0.  0.
       21    1    1    2  504  502  0.84022575028E+02  0.13167754681E+02  0.48982511944E+03  0.49715372926E+03  0.00000000000E+00 0. -1.
        2    1    1    2  502    0  0.79535910630E+02 -0.37054139883E+02  0.73917176907E+03  0.74436138707E+03  0.00000000000E+00 0. -1.
<scales pt_clust_1="13000.00000" pt_clust_2="13000.00000" pt_clust_3="59.10802" pt_clust_4="175.85913"></scales>
<clustering>
<clus scale="   59.108">  5  6 -1 -1</clus>
<clus scale="  175.859">  1  5  2 -1</clus>
<clus scale="  410.747">  1  3  2 -1</clus>
<clus scale="  410.747">  2  3  1 -1</clus>
</clustering>
</event>
<event>
 4   0  0.3464723E-02  0.3956775E+03  0.7816531E-02  0.1045287E+00
       21   -1    0    0  503  502  0.00000000000E+00  0.00000000000E+00  0.32739941813E+03  0.32739941813E+03  0.00000000000E+00 0. -1.
       21   -1    0    0  501  503  0.00000000000E+00  0.00000000000E+00 -0.51129837167E+03  0.51129837167E+03  0.00000000000E+00 0. -1.
  1000006    1    1    2  501    0  0.22116643274E+02 -0.18322540558E+03 -0.19865227469E+03  0.44274532341E+03  0.35000000000E+03 0.  0.
 -1000006    1    1    2    0  502 -0.22116643274E+02  0.18322540558E+03  0.14753321145E+02  0.39595246639E+03  0.35000000000E+03 0.  0.
<scales pt_clust_1="13000.00000" pt_clust_2="13000.00000"></scales>
<clustering>
<clus scale="  395.678">  2  3  1 -1</clus>
<clus scale="  395.678">  1  3  2 -1</clus>
</clustering>
</event>
<event>
 6   2  0.3464723E-02  0.3905861E+03  0.7816531E-02  0.1047089E+00
       21   -1    0    0  505  502  0.00000000000E+00  0.00000000000E+00  0.75074179377E+03  0.75074179377E+03  0.00000000000E+00 0. -1.
       21   -1    0    0  504  503  0.00000000000E+00  0.00000000000E+00 -0.89598673703E+03  0.89598673703E+03  0.00000000000E+00 0. -1.
  1000006    1    1    2  501    0  0.12600020927E+03 -0.55861600952E+02 -0.59102509717E+03  0.70057636035E+03  0.35000000000E+03 0.  0.
 -1000006    1    1    2    0  502 -0.15776865902E+03  0.35951162058E+02  0.51448120426E+03  0.64294194556E+03  0.35000000000E+03 0.  0.
       21    1    1    2  504  501  0.37934841354E+02 -0.16543431413E+02 -0.18064184991E+03  0.18532192329E+03  0.00000000000E+00 0. -1.
       21    1    1    2  505  503 -0.61663916011E+01  0.36453870307E+02  0.11194079957E+03  0.11788830160E+03  0.00000000000E+00 0.  1.
<scales pt_clust_1="13000.00000" pt_clust_2="13000.00000" pt_clust_3="41.31096" pt_clust_4="36.97173"></scales>
<clustering>
<clus scale="   36.972">  1  6  2 -1</clus>
<clus scale="   41.311">  2  5  1 -1</clus>
<clus scale="  390.586">  1  4  2 -1</clus>
<clus scale="  390.586">  1  3  2 -1</clus>
</clustering>
</event>
<event>
 4   0  0.3464723E-02  0.4696746E+03  0.7816531E-02  0.1022012E+00
       21   -1    0    0  503  502  0.00000000000E+00  0.00000000000E+00  0.25844905771E+03  0.25844905771E+03  0.00000000000E+00 0. -1.
       21   -1    0    0  501  503  0.00000000000E+00  0.00000000000E+00 -0.14900063951E+04  0.14900063951E+04  0.00000000000E+00 0. -1.
  1000006    1    1    2  501    0  0.13694141389E+03 -0.28167586603E+03 -0.11871538475E+04  0.12766865324E+04  0.35000000000E+03 0.  0.
 -1000006    1    1    2    0  502 -0.13694141389E+03  0.28167586603E+03 -0.44403489858E+02  0.47176892040E+03  0.35000000000E+03 0.  0.
<scales pt_clust_1="13000.00000" pt_clust_2="13000.00000"></scales>
<clustering>
<clus scale="  469.675">  2  3  1 -1</clus>
<clus scale="  469.675">  1  3  2 -1</clus>
</clustering>
</event>
<event>
 5   1  0.3464723E-02  0.4048114E+03  0.7816531E-02  0.1042126E+00
       21   -1    0    0  502  503  0.00000000000E+00  0.00000000000E+00  0.29014045707E+03  0.29014045707E+03  0.00000000000E+00 0. -1.
        1   -1    0    0  501    0  0.00000000000E+00  0.00000000000E+00 -0.86881037022E+03  0.86881037022E+03  0.00000000000E+00 0.  1.
  1000006    1    1    2  501    0 -0.16680205163E+03 -0.13907577925E+03 -0.57207150831E+03  0.70493319359E+03  0.35000000000E+03 0.  0.
 -1000006    1    1    2    0  503  0.10100868825E+03  0.13248496485E+03 -0.65014049074E+00  0.38762797074E+03  0.35000000000E+03 0.  0.
        1    1    1    2  502    0  0.65793363379E+02  0.65908143983E+01 -0.59482643466E+01  0.66389662960E+02  0.00000000000E+00 0.  1.
<scales pt_clust_1="13000.00000" pt_clust_2="13000.00000" pt_clust_3="66.12265"></scales>
<clustering>
<clus scale="   66.123">  1  5  2 -1</clus>
<clus scale="  702.714">  3  4 -1 -1</clus>
<clus scale="  404.811">  1  3  2 -1</clus>
</clustering>
</event>
<event>
 6   2  0.3464723E-02  0.3611406E+03  0.7816531E-02  0.1058133E+00
        1   -1    0    0  504    0  0.00000000000E+00  0.00000000000E+00  0.36461389397E+04  0.36461389397E+04  0.00000000000E+00 0. -1.
       21   -1    0    0  501  503  0.00000000000E+00  0.00000000000E+00 -0.71170914840E+03  0.71170914840E+03  0.00000000000E+00 0.  1.
  1000006    1    1    2  501    0 -0.42766944803E+02 -0.18002000788E+03  0.10303819121E+03  0.40908811233E+03  0.35000000000E+03 0.  0.
 -1000006    1    1    2    0  502 -0.12077657313E+03 -0.83462936561E+02  0.52083577535E+03  0.64445554329E+03  0.35000000000E+03 0.  0.
       21    1    1    2  504  503  0.66628538565E+02  0.44517583232E+02 -0.48849804458E+03  0.49502678405E+03  0.00000000000E+00 0.  1.
        1    1    1    2  502    0  0.96914979371E+02  0.21896536121E+03  0.27990538693E+04  0.28092776484E+04  0.00000000000E+00 0. -1.
<scales pt_clust_1="13000.00000" pt_clust_2="13000.00000" pt_clust_3="80.13225" pt_clust_4="241.02920"></scales>
<clustering>
<clus scale="   80.132">  2  5  1 -1</clus>
<clus scale="  241.029">  1  6  2 -1</clus>
<clus scale="  361.141">  2  3  1 -1</clus>
<clus scale="  361.141">  2  3  1 -1</clus>
</clustering>
</event>
<event>
 5   1  0.3464723E-02  0.4077222E+03  0.7816531E-02  0.1041138E+00
       21   -1    0    0  503  502  0.00000000000E+00  0.00000000000E+00  0.82796543194E+03  0.82796543194E+03  0.00000000000E+00 0. -1.
       21   -1    0    0  501  503  0.00000000000E+00  0.00000000000E+00 -0.42116923218E+03  0.42116923218E+03  0.00000000000E+00 0. -1.
  1000006    1    1    2  501    0  0.16989808446E+03  0.50918380878E+02 -0.18243706244E+02  0.39279876964E+03  0.35000000000E+03 0.  0.
 -1000006    1    1    2    0  504 -0.23504651933E+03 -0.71033059324E+02  0.17055623986E+01  0.42754586972E+03  0.35000000000E+03 0.  0.
       21    1    1    2  504  502  0.65148434874E+02  0.20114678446E+02  0.42333434361E+03  0.42879002476E+03  0.00000000000E+00 0. -1.
<scales pt_clust_1="13000.00000" pt_clust_2="13000.00000" pt_clust_3="68.18298"></scales>
<clustering>
<clus scale="   68.183">  1  5  2 -1</clus>
<clus scale="  407.722">  2  3  1 -1</clus>
<clus scale="  407.722">  1  3  2 -1</clus>
</clustering>
</event>
<event>
 5   1  0.3464723E-02  0.4053690E+03  0.7816531E-02  0.1041936E+00
       21   -1    0    0  501  502  0.00000000000E+00  0.00000000000E+00  0.25520058571E+03  0.25520058571E+03  0.00000000000E+00 0. -1.
       21   -1    0    0  502  503  0.00000000000E+00  0.00000000000E+00 -0.75625694839E+03  0.75625694839E+03  0.00000000000E+00 0. -1.
  1000006    1    1    2  501    0 -0.18947287459E+03 -0.49582326087E+02 -0.13827774496E+03  0.42423945128E+03  0.35000000000E+03 0.  0.
 -1000006    1    1    2    0  504  0.21502386185E+03  0.30847654205E+02 -0.27866170539E+03  0.49733206712E+03  0.35000000000E+03 0.  0.
       21    1    1    2  504  503 -0.25550987261E+02  0.18734671882E+02 -0.84116912324E+02  0.89886015705E+02  0.00000000000E+00 0. -1.
<scales pt_clust_1="13000.00000" pt_clust_2="13000.00000" pt_clust_3="31.68345"></scales>
<clustering>
<clus scale="   31.683">  2  5  1 -1</clus>
<clus scale="  405.369">  1  3  2 -1</clus>
<clus scale="  405.369">  1  3  2 -1</clus>
</clustering>
</event>
<event>
 6   2  0.3464723E-02  0.8749016E+03  0.7816531E-02  0.9672800E-01
       21   -1    0    0  501  502  0.00000000000E+00  0.00000000000E+00  0.29274779247E+04  0.29274779247E+04  0.00000000000E+00 0. -1.
       21   -1    0    0  505  503  0.00000000000E+00  0.00000000000E+00 -0.42245766667E+03  0.42245766667E+03  0.00000000000E+00 0. -1.
  1000006    1    1    2  501    0  0.18586819131E+03 -0.12716065475E+03  0.97634258627E+03  0.10613489824E+04  0.35000000000E+03 0.  0.
 -1000006    1    1    2    0  503 -0.10995198606E+03 -0.74130661102E+03  0.71497827054E+03  0.10933063880E+04  0.35000000000E+03 0.  0.
       21    1    1    2  504  502 -0.21337448463E+02  0.54525935013E+03  0.46789004466E+03  0.71880744258E+03  0.00000000000E+00 0. -1.
       21    1    1    2  505  504 -0.54578756783E+02  0.32320791564E+03  0.34580935655E+03  0.47647277835E+03  0.00000000000E+00 0. -1.
<scales pt_clust_1="13000.00000" pt_clust_2="13000.00000" pt_clust_3="805.94185" pt_clust_4="62.91438"></scales>
<clustering>
<clus scale="   62.914">  5  6 -1 -1</clus>
<clus scale="  416.193">  1  3  2 -1</clus>
<clus scale="  805.942">  1  5  2 -1</clus>
<clus scale="  874.902">  1  3  2 -1</clus>
</clustering>
</event>
<event>
 4   0  0.3464723E-02  0.7472417E+03  0.7816531E-02  0.9639688E-01
       21   -1    0    0  501  502  0.00000000000E+00  0.00000000000E+00  0.58492325429E+03  0.58492325429E+03  0.00000000000E+00 0. -1.
       21   -1    0    0  502  503  0.00000000000E+00  0.00000000000E+00 -0.98181972598E+03  0.98181972598E+03  0.00000000000E+00 0. -1.
  1000006    1    1    2  501    0  0.43162917723E+03  0.49956627263E+03 -0.68023464077E+02  0.75033152609E+03  0.35000000000E+03 0.  0.
 -1000006    1    1    2    0  503 -0.43162917723E+03 -0.49956627263E+03 -0.32887300761E+03  0.81641145418E+03  0.35000000000E+03 0.  0.
<scales pt_clust_1="13000.00000" pt_clust_2="13000.00000"></scales>
<clustering>
<clus scale="  747.242">  1  3  2 -1</clus>
<clus scale="  747.242">  1  3  2 -1</clus>
</clustering>
</event>
<event>
 4   0  0.3464723E-02  0.4448848E+03  0.7816531E-02  0.1029259E+00
       21   -1    0    0  501  502  0.00000000000E+00  0.00000000000E+00  0.32670259024E+03  0.32670259024E+03  0.00000000000E+00 0.  1.
       21   -1    0    0  502  503  0.00000000000E+00  0.00000000000E+00 -0.73511142404E+03  0.73511142404E+03  0.00000000000E+00 0.  1.
  1000006    1    1    2  501    0 -0.17829080281E+03 -0.20888965377E+03  0.18448876465E+02  0.44526717694E+03  0.35000000000E+03 0.  0.
 -1000006    1    1    2    0  503  0.17829080281E+03  0.20888965377E+03 -0.42685771027E+03  0.61654683734E+03  0.35000000000E+03 0.  0.
<scales pt_clust_1="13000.00000" pt_clust_2="13000.00000"></scales>
<clustering>
<clus scale="  444.885">  1  3  2 -1</clus>
<clus scale="  444.885">  1  3  2 -1</clus>
</clustering>
</event>
<event>
 4   0  0.3464723E-02  0.4605420E+03  0.7816531E-02  0.1024624E+00
       21   -1    0    0  503  502  0.00000000000E+00  0.00000000000E+00  0.26351205982E+03  0.26351205982E+03  0.00000000000E+00 0.  1.
       21   -1    0    0  501  503  0.00000000000E+00  0.00000000000E+00 -0.80576119813E+03  0.80576119813E+03  0.00000000000E+00 0.  1.
  1000006    1    1    2  501    0  0.15690085799E+03 -0.25491383348E+03 -0.28867678624E+03  0.54353769755E+03  0.35000000000E+03 0.  0.
 -1000006    1    1    2    0  502 -0.15690085799E+03  0.25491383348E+03 -0.25357235207E+03  0.52573556040E+03  0.35000000000E+03 0.  0.
<scales pt_clust_1="13000.00000" pt_clust_2="13000.00000"></scales>
<clustering>
<clus scale="  460.542">  2  3  1 -1</clus>
<clus scale="  460.542">  1  3  2 -1</clus>
</clustering>
</event>
<event>
 6   2  0.3464723E-02  0.3580049E+03  0.7816531E-02  0.1059377E+00
        2   -1    0    0  501    0  0.00000000000E+00  0.00000000000E+00  0.16292733911E+04  0.16292733911E+04  0.00000000000E+00 0.  1.
        2   -1    0    0  502    0  0.00000000000E+00  0.00000000000E+00 -0.40208171070E+04  0.40208171070E+04  0.00000000000E+00 0.  1.
  1000006    1    1    2  501    0  0.64336419557E+01  0.48625235538E+02  0.24212978209E+03  0.42840709221E+03  0.35000000000E+03 0.  0.
 -1000006    1    1    2    0  503 -0.34508359013E+02  0.32857309183E+03  0.35602306009E+01  0.48131463593E+03  0.35000000000E+03 0.  0.
        2    1    1    2  502    0 -0.16192385367E+02 -0.48098247889E+02  0.10434765017E+04  0.10447099332E+04  0.00000000000E+00 0.  1.
        2    1    1    2  503    0  0.44267102424E+02 -0.32910007948E+03 -0.36807102303E+04  0.36956588368E+04  0.00000000000E+00 0.  1.
<scales pt_clust_1="13000.00000" pt_clust_2="13000.00000" pt_clust_3="50.75071" pt_clust_4="332.64532"></scales>
<clustering>
<clus scale="   50.751">  1  5  2 -1</clus>
<clus scale="  332.645">  2  6  1 -1</clus>
<clus scale="  358.005">  2  4  1 -1</clus>
<clus scale="  358.005">  1  3  2 -1</clus>
</clustering>
</event>
<event>
 5   1  0.3464723E-02  0.4021547E+03  0.7816531E-02  0.1043036E+00
       21   -1    0    0  504  502  0.00000000000E+00  0.00000000000E+00  0.83905625562E+03  0.83905625562E+03  0.00000000000E+00 0. -1.
       21   -1    0    0  502  503  0.00000000000E+00  0.00000000000E+00 -0.41912539562E+03  0.41912539562E+03  0.00000000000E+00 0. -1.
  1000006    1    1    2  501    0 -0.18431922729E+03 -0.51513398517E+02  0.25325925460E+02  0.39971065820E+03  0.35000000000E+03 0.  0.
 -1000006    1    1    2    0  503  0.18650796581E+03  0.84320923967E+02 -0.53668469811E+02  0.40899333024E+03  0.35000000000E+03 0.  0.
       21    1    1    2  504  501 -0.21887385236E+01 -0.32807525450E+02  0.44827340435E+03  0.44947766280E+03  0.00000000000E+00 0. -1.
<scales pt_clust_1="13000.00000" pt_clust_2="13000.00000" pt_clust_3="32.88045"></scales>
<clustering>
<clus scale="   32.880">  1  5  2 -1</clus>
<clus scale="  402.155">  1  3  2 -1</clus>
<clus scale="  402.155">  1  3  2 -1</clus>
</clustering>
</event>
<event>
 6   2  0.3464723E-02  0.3592918E+03  0.7816531E-02  0.1058865E+00
       21   -1    0    0  505  502  0.00000000000E+00  0.00000000000E+00  0.42959696766E+03  0.42959696766E+03  0.00000000000E+00 0.  1.
       21   -1    0    0  501  503  0.00000000000E+00  0.00000000000E+00 -0.86531903166E+03  0.86531903166E+03  0.00000000000E+00 0.  1.
  1000006    1    1    2  501    0  0.41365771576E+02 -0.53644732694E+02 -0.54039002512E+03  0.64738725942E+03  0.35000000000E+03 0.  0.
 -1000006    1    1    2    0  504 -0.40274017293E+02  0.10982552395E+03 -0.13246237627E+03  0.39208407683E+03  0.35000000000E+03 0.  0.
       21    1    1    2  504  502 -0.27353169295E+02 -0.26834890253E+02  0.19093310124E+03  0.19474022788E+03  0.00000000000E+00 0.  1.
       21    1    1    2  505  503  0.26261415012E+02 -0.29345901004E+02  0.46197236145E+02  0.60704435189E+02  0.00000000000E+00 0.  1.
<scales pt_clust_1="13000.00000" pt_clust_2="13000.00000" pt_clust_3="38.31850" pt_clust_4="40.70512"></scales>
<clustering>
<clus scale="   38.318">  1  5  2 -1</clus>
<clus scale="   40.705">  1  6  2 -1</clus>
<clus scale="  359.292">  2  3  1 -1</clus>
<clus scale="  359.292">  1  3  2 -1</clus>
</clustering>
</event>
<event>
 5   1  0.3464723E-02  0.4953267E+03  0.7816531E-02  0.1015006E+00
       21   -1    0    0  501  502  0.00000000000E+00  0.00000000000E+00  0.96090312151E+03  0.96090312151E+03  0.00000000000E+00 0.  1.
       21   -1    0    0  504  503  0.00000000000E+00  0.00000000000E+00 -0.10453754728E+04  0.10453754728E+04  0.00000000000E+00 0. -1.
  1000006    1    1    2  501    0 -0.32118044763E+03  0.28653765767E+03  0.47345492578E+03  0.72932864742E+03  0.35000000000E+03 0.  0.
 -1000006    1    1    2    0  503  0.73354910392E+02 -0.27768088890E+03  0.18848415185E+03  0.49042215941E+03  0.35000000000E+03 0.  0.
       21    1    1    2  504  502  0.24782553724E+03 -0.88567687722E+01 -0.74641142888E+03  0.78652778745E+03  0.00000000000E+00 0. -1.
<scales pt_clust_1="13000.00000" pt_clust_2="13000.00000" pt_clust_3="247.98375"></scales>
<clustering>
<clus scale="  247.984">  2  5  1 -1</clus>
<clus scale="  495.327">  2  4  1 -1</clus>
<clus scale="  495.327">  1  3  2 -1</clus>
</clustering>
</event>
<event>
 4   0  0.3464723E-02  0.3927631E+03  0.7816531E-02  0.1046315E+00
       21   -1    0    0  501  502  0.00000000000E+00  0.00000000000E+00  0.21673860333E+03  0.21673860333E+03  0.00000000000E+00 0. -1.
       21   -1    0    0  502  503  0.00000000000E+00  0.00000000000E+00 -0.71919957672E+03  0.71919957672E+03  0.00000000000E+00 0. -1.
  1000006    1    1    2  501    0  0.34899471393E+02  0.17477096848E+03 -0.20359060088E+03  0.44239348695E+03  0.35000000000E+03 0.  0.
 -1000006    1    1    2    0  503 -0.34899471393E+02 -0.17477096848E+03 -0.29887037251E+03  0.49354469310E+03  0.35000000000E+03 0.  0.
<scales pt_clust_1="13000.00000" pt_clust_2="13000.00000"></scales>
<clustering>
<clus scale="  392.763">  1  3  2 -1</clus>
<clus scale="  392.763">  1  3  2 -1</clus>
</clustering>
</event>
<event>
 5   1  0.3464723E-02  0.4272640E+03  0.7816531E-02  0.1034728E+00
       21   -1    0    0  501  502  0.00000000000E+00  0.00000000000E+00  0.13785266678E+04  0.13785266678E+04  0.00000000000E+00 0. -1.
       21   -1    0    0  504  503  0.00000000000E+00  0.00000000000E+00 -0.39190355506E+03  0.39190355506E+03  0.00000000000E+00 0. -1.
  1000006    1    1    2  501    0 -0.56643316440E+02 -0.23585938408E+03  0.68969452295E+03  0.81056563543E+03  0.35000000000E+03 0.  0.
 -1000006    1    1    2    0  503  0.10878826047E+03  0.22640614463E+03  0.55150930852E+03  0.69982651088E+03  0.35000000000E+03 0.  0.
       21    1    1    2  504  502 -0.52144944028E+02  0.94532394512E+01 -0.25458071872E+03  0.26003807657E+03  0.00000000000E+00 0. -1.
<scales pt_clust_1="13000.00000" pt_clust_2="13000.00000" pt_clust_3="52.99490"></scales>
<clustering>
<clus scale="   52.995">  2  5  1 -1</clus>
<clus scale="  427.264">  2  4  1 -1</clus>
<clus scale="  427.264">  1  3  2 -1</clus>
</clustering>
</event>
<event>
 6   2  0.3464723E-02  0.3893941E+03  0.7816531E-02  0.1047515E+00
       21   -1    0    0  501  502  0.00000000000E+00  0.00000000000E+00  0.15795273052E+04  0.15795273052E+04  0.00000000000E+00 0.  1.
       21   -1    0    0  504  503  0.00000000000E+00  0.00000000000E+00 -0.45801828871E+03  0.45801828871E+03  0.00000000000E+00 0.  1.
  1000006    1    1    2  501    0  0.11835720818E+03 -0.63158660534E+01  0.99485359114E+03  0.10612643340E+04  0.35000000000E+03 0.  0.
 -1000006    1    1    2    0  503 -0.26238727912E+03 -0.11279307091E+03  0.38233128298E+03  0.59181633218E+03  0.35000000000E+03 0.  0.
       21    1    1    2  504  505  0.12352337015E+03  0.88627971208E+02 -0.29424512107E+03  0.33119953431E+03  0.00000000000E+00 0.  1.
       21    1    1    2  505  502  0.20506700788E+02  0.30480965753E+02  0.38569263418E+02  0.53265393372E+02  0.00000000000E+00 0.  1.
<scales pt_clust_1="13000.00000" pt_clust_2="13000.00000" pt_clust_3="152.44431" pt_clust_4="36.73709"></scales>
<clustering>
<clus scale="   36.737">  1  6  2 -1</clus>
<clus scale="  152.444">  2  5  1 -1</clus>
<clus scale="  389.394">  2  4  1 -1</clus>
<clus scale="  389.394">  1  3  2 -1</clus>
</clustering>
</event>
<event>
 5   1  0.3464723E-02  0.4572788E+03  0.7816531E-02  0.1025573E+00
       -2   -1    0    0    0  501  0.00000000000E+00  0.00000000000E+00  0.19989603594E+03  0.19989603594E+03  0.00000000000E+00 0. -1.
        2   -1    0    0  502    0  0.00000000000E+00  0.00000000000E+00 -0.12831247556E+04  0.12831247556E+04  0.00000000000E+00 0.  1.
  1000006    1    1    2  502    0  0.31523736750E+03 -0.51126106364E+02 -0.38911304273E+03  0.61310475177E+03  0.35000000000E+03 0.  0.
 -1000006    1    1    2    0  503 -0.27590062492E+03  0.45276746720E+02 -0.69860770565E+03  0.82989388780E+03  0.35000000000E+03 0.  0.
       21    1    1    2  503  501 -0.39336742576E+02  0.58493596441E+01  0.44920287306E+01  0.40022151951E+02  0.00000000000E+00 0.  1.
<scales pt_clust_1="13000.00000" pt_clust_2="13000.00000" pt_clust_3="39.76926"></scales>
<clustering>
<clus scale="   39.769">  1  5  2 -1</clus>
<clus scale="  728.030">  3  4 -1 -1</clus>
<clus scale="  457.279">  2  3  1 -1</clus>
</clustering>
</event>
<event>
 5   1  0.3464723E-02  0.3883472E+03  0.7816531E-02  0.1047891E+00
       21   -1    0    0  501  502  0.00000000000E+00  0.00000000000E+00  0.19265683412E+04  0.19265683412E+04  0.00000000000E+00 0.  1.
       21   -1    0    0  504  503  0.00000000000E+00  0.00000000000E+00 -0.10805946328E+03  0.10805946328E+03  0.00000000000E+00 0.  1.
  1000006    1    1    2  501    0 -0.11863866504E+03  0.11747458224E+03  0.95266351867E+03  0.10285636539E+04  0.35000000000E+03 0.  0.
 -1000006    1    1    2    0  503  0.80963377184E+02 -0.15141969556E+03  0.48690854235E+03  0.62374908518E+03  0.35000000000E+03 0.  0.
       21    1    1    2  504  502  0.37675287852E+02  0.33945113317E+02  0.37893681686E+03  0.38231506536E+03  0.00000000000E+00 0. -1.
<scales pt_clust_1="13000.00000" pt_clust_2="13000.00000" pt_clust_3="50.71191"></scales>
<clustering>
<clus scale="   50.712">  1  5  2 -1</clus>
<clus scale="  388.347">  2  4  1 -1</clus>
<clus scale="  388.347">  1  3  2 -1</clus>
</clustering>
</event>
<event>
 6   2  0.3464723E-02  0.5580373E+03  0.7816531E-02  0.9996505E-01
       21   -1    0    0  505  502  0.00000000000E+00  0.00000000000E+00  0.22216531093E+04  0.22216531093E+04  0.00000000000E+00 0. -1.
       21   -1    0    0  502  503  0.00000000000E+00  0.00000000000E+00 -0.50279630850E+03  0.50279630850E+03  0.00000000000E+00 0.  1.
  1000006    1    1    2  501    0 -0.35343210094E+03 -0.11572435515E+02  0.52222353975E+03  0.72129438976E+03  0.35000000000E+03 0.  0.
 -1000006    1    1    2    0  503  0.46179992841E+03 -0.39029501824E+02 -0.17426162791E+03  0.60634115055E+03  0.35000000000E+03 0.  0.
       21    1    1    2  504  501 -0.10722675809E+03 -0.53576783730E+00  0.21957633657E+03  0.24435963717E+03  0.00000000000E+00 0. -1.
       21    1    1    2  505  504 -0.11410693767E+01  0.51137705177E+02  0.11513185524E+04  0.11524542403E+04  0.00000000000E+00 0. -1.
<scales pt_clust_1="13000.00000" pt_clust_2="13000.00000" pt_clust_3="107.99104" pt_clust_4="51.15043"></scales>
<clustering>
<clus scale="   51.150">  1  6  2 -1</clus>
<clus scale="  107.991">  1  5  2 -1</clus>
<clus scale="  558.037">  1  3  2 -1</clus>
<clus scale="  558.037">  1  3  2 -1</clus>
</clustering>
</event>
<event>
 4   0  0.3464723E-02  0.3873387E+03  0.7816531E-02  0.1048254E+00
       21   -1    0    0  503  502  0.00000000000E+00  0.00000000000E+00  0.14464036245E+03  0.14464036245E+03  0.00000000000E+00 0.  1.
       21   -1    0    0  501  503  0.00000000000E+00  0.00000000000E+00 -0.10411573337E+04  0.10411573337E+04  0.00000000000E+00 0. -1.
  1000006    1    1    2  501    0 -0.11559805906E+03 -0.11903095355E+03 -0.48448132708E+03  0.62028496310E+03  0.35000000000E+03 0.  0.
 -1000006    1    1    2    0  502  0.11559805906E+03  0.11903095355E+03 -0.41203564414E+03  0.56551273302E+03  0.35000000000E+03 0.  0.
<scales pt_clust_1="13000.00000" pt_clust_2="13000.00000"></scales>
<clustering>
<clus scale="  387.339">  2  3  1 -1</clus>
<clus scale="  387.339">  1  3  2 -1</clus>
</clustering>
</event>
<event>
 4   0  0.3464723E-02  0.3627914E+03  0.7816531E-02  0.1057484E+00
       21   -1    0    0  501  502  0.00000000000E+00  0.00000000000E+00  0.12254059343E+03  0.12254059343E+03  0.00000000000E+00 0. -1.
       21   -1    0    0  502  503  0.00000000000E+00  0.00000000000E+00 -0.10768117883E+04  0.10768117883E+04  0.00000000000E+00 0. -1.
  1000006    1    1    2  501    0  0.12912024553E+02 -0.94609103730E+02 -0.44689521623E+03  0.57561526837E+03  0.35000000000E+03 0.  0.
 -1000006    1    1    2    0  503 -0.12912024553E+02  0.94609103730E+02 -0.50737597864E+03  0.62373711336E+03  0.35000000000E+03 0.  0.
<scales pt_clust_1="13000.00000" pt_clust_2="13000.00000"></scales>
<clustering>
<clus scale="  362.791">  1  3  2 -1</clus>
<clus scale="  362.791">  1  3  2 -1</clus>
</clustering>
</event>
<event>
 5   1  0.3464723E-02  0.5671963E+03  0.7816531E-02  0.9975902E-01
       21   -1    0    0  501  502  0.00000000000E+00  0.00000000000E+00  0.13594479447E+04  0.13594479447E+04  0.00000000000E+00 0.  1.
       21   -1    0    0  504  503  0.00000000000E+00  0.00000000000E+00 -0.38363500625E+03  0.38363500625E+03  0.00000000000E+00 0. -1.
  1000006    1    1    2  501    0  0.20419002983E+03 -0.35089691886E+03  0.65498327561E+03  0.84636003408E+03  0.35000000000E+03 0.  0.
 -1000006    1    1    2    0  503 -0.19864877834E+02  0.48417882767E+03  0.16211027205E+03  0.61935732081E+03  0.35000000000E+03 0.  0.
       21    1    1    2  504  502 -0.18432515200E+03 -0.13328190882E+03  0.15871939082E+03  0.27736559610E+03  0.00000000000E+00 0. -1.
<scales pt_clust_1="13000.00000" pt_clust_2="13000.00000" pt_clust_3="227.46391"></scales>
<clustering>
<clus scale="  227.464">  1  5  2 -1</clus>
<clus scale="  567.196">  1  3  2 -1</clus>
<clus scale="  567.196">  1  3  2 -1</clus>
</clustering>
</event>
<event>
 5   1  0.3464723E-02  0.3551303E+03  0.7816531E-02  0.1060529E+00
       21   -1    0    0  503  502  0.00000000000E+00  0.00000000000E+00  0.16796558972E+04  0.16796558972E+04  0.00000000000E+00 0. -1.
       21   -1    0    0  501  503  0.00000000000E+00  0.00000000000E+00 -0.22851600520E+03  0.22851600520E+03  0.00000000000E+00 0. -1.
  1000006    1    1    2  501    0  0.23924713277E+02  0.29146787258E+02  0.84515931944E+01  0.35212690403E+03  0.35000000000E+03 0.  0.
 -1000006    1    1    2    0  504 -0.11992856921E+02 -0.20494938635E+03  0.96181227240E+03  0.10439017803E+04  0.35000000000E+03 0.  0.
       21    1    1    2  504  502 -0.11931856356E+02  0.17580259910E+03  0.48087602639E+03  0.51214321806E+03  0.00000000000E+00 0. -1.
<scales pt_clust_1="13000.00000" pt_clust_2="13000.00000" pt_clust_3="176.20705"></scales>
<clustering>
<clus scale="  176.207">  1  5  2 -1</clus>
<clus scale="  355.130">  2  3  1 -1</clus>
<clus scale="  355.130">  1  3  2 -1</clus>
</clustering>
</event>
<event>
 4   0  0.3464723E-02  0.4019668E+03  0.7816531E-02  0.1043101E+00
       21   -1    0    0  501  502  0.00000000000E+00  0.00000000000E+00  0.26351584353E+03  0.26351584353E+03  0.00000000000E+00 0.  1.
       21   -1    0    0  502  503  0.00000000000E+00  0.00000000000E+00 -0.90807305402E+03  0.90807305402E+03  0.00000000000E+00 0.  1.
  1000006    1    1    2  501    0  0.97142292022E+02 -0.17216461906E+03  0.11556587192E+02  0.40213285822E+03  0.35000000000E+03 0.  0.
 -1000006    1    1    2    0  503 -0.97142292022E+02  0.17216461906E+03 -0.65611379768E+03  0.76945603933E+03  0.35000000000E+03 0.  0.
<scales pt_clust_1="13000.00000" pt_clust_2="13000.00000"></scales>
<clustering>
<clus scale="  401.967">  1  3  2 -1</clus>
<clus scale="  401.967">  1  3  2 -1</clus>
</clustering>
</event>
<event>
 5   1  0.3464723E-02  0.3640419E+03  0.7816531E-02  0.1056995E+00
       21   -1    0    0  502  503  0.00000000000E+00  0.00000000000E+00  0.12142122746E+04  0.12142122746E+04  0.00000000000E+00 0. -1.
       -1   -1    0    0    0  501  0.00000000000E+00  0.00000000000E+00 -0.12045839591E+04  0.12045839591E+04  0.00000000000E+00 0.  1.
  1000006    1    1    2  502    0  0.85782972288E+02 -0.57228302285E+02  0.78377103029E+03  0.86454081734E+03  0.35000000000E+03 0.  0.
 -1000006    1    1    2    0  501 -0.11710479882E+02  0.12410207811E+03  0.29873899563E+03  0.47674253915E+03  0.35000000000E+03 0.  0.
       -1    1    1    2    0  503 -0.74072492406E+02 -0.66873775824E+02 -0.10728817104E+04  0.10775128772E+04  0.00000000000E+00 0.  1.
<scales pt_clust_1="13000.00000" pt_clust_2="13000.00000" pt_clust_3="99.79397"></scales>
<clustering>
<clus scale="   99.794">  2  5  1 -1</clus>
<clus scale="  364.042">  1  3  2 -1</clus>
<clus scale="  364.042">  1  3  2 -1</clus>
</clustering>
</event>
<event>
 6   2  0.3464723E-02  0.6373051E+03  0.7816531E-02  0.9830896E-01
       21   -1    0    0  505  502  0.00000000000E+00  0.00000000000E+00  0.19208714436E+04  0.19208714436E+04  0.00000000000E+00 0. -1.
       21   -1    0    0  501  503  0.00000000000E+00  0.00000000000E+00 -0.43504117067E+03  0.43504117067E+03  0.00000000000E+00 0.  1.
  1000006    1    1    2  501    0 -0.43650070921E+03  0.23650545629E+03  0.57307096118E+03  0.83509162763E+03  0.35000000000E+03 0.  0.
 -1000006    1    1    2    0  502  0.46522528629E+03 -0.33822434350E+03  0.72034161245E+03  0.98601334279E+03  0.35000000000E+03 0.  0.
       21    1    1    2  504  503  0.10339438319E+02  0.55205211858E+02 -0.16394838939E+03  0.17330203053E+03  0.00000000000E+00 0.  1.
       21    1    1    2  505  504 -0.39064015397E+02  0.46513675352E+02  0.35636608866E+03  0.36150561329E+03  0.00000000000E+00 0. -1.
<scales pt_clust_1="13000.00000" pt_clust_2="13000.00000" pt_clust_3="56.16511" pt_clust_4="61.08647"></scales>
<clustering>
<clus scale="   56.165">  2  5  1 -1</clus>
<clus scale="   61.086">  1  6  2 -1</clus>
<clus scale="  637.305">  2  3  1 -1</clus>
<clus scale="  637.305">  1  3  2 -1</clus>
</clustering>
</event>
<event>
 5   1  0.3464723E-02  0.3519767E+03  0.7816531E-02  0.1061807E+00
       21   -1    0    0  501  502  0.00000000000E+00  0.00000000000E+00  0.56865019065E+03  0.56865019065E+03  0.00000000000E+00 0. -1.
       21   -1    0    0  504  503  0.00000000000E+00  0.00000000000E+00 -0.10411729859E+04  0.10411729859E+04  0.00000000000E+00 0. -1.
  1000006    1    1    2  501    0 -0.16167944948E+02 -0.55569452789E+02  0.19407356213E+03  0.40436853741E+03  0.35000000000E+03 0.  0.
 -1000006    1    1    2    0  503 -0.35336481968E+02  0.15112756005E+02  0.15252446926E+03  0.38371965818E+03  0.35000000000E+03 0.  0.
       21    1    1    2  504  502  0.51504426916E+02  0.40456696784E+02 -0.81912082669E+03  0.82173498101E+03  0.00000000000E+00 0. -1.
<scales pt_clust_1="13000.00000" pt_clust_2="13000.00000" pt_clust_3="65.49390"></scales>
<clustering>
<clus scale="   65.494">  2  5  1 -1</clus>
<clus scale="  351.977">  1  3  2 -1</clus>
<clus scale="  351.977">  1  3  2 -1</clus>
</clustering>
</event>
<event>
 6   2  0.3464723E-02  0.5580266E+03  0.7816531E-02  0.9996530E-01
       21   -1    0    0  505  502  0.00000000000E+00  0.00000000000E+00  0.88268803342E+03  0.88268803342E+03  0.00000000000E+00 0. -1.
       21   -1    0    0  501  503  0.00000000000E+00  0.00000000000E+00 -0.72279009257E+03  0.72279009257E+03  0.00000000000E+00 0.  1.
  1000006    1    1    2  501    0  0.26553167938E+03 -0.31181585057E+03 -0.10135506345E+03  0.54818705412E+03  0.35000000000E+03 0.  0.
 -1000006    1    1    2    0  502 -0.24440272365E+03  0.42456117989E+03  0.36398288509E+03  0.70353992597E+03  0.35000000000E+03 0.  0.
       21    1    1    2  504  503  0.43142439070E+02  0.23850711299E+02 -0.17825896701E+03  0.18494968451E+03  0.00000000000E+00 0. -1.
       21    1    1    2  505  504 -0.64271394796E+02 -0.13659604062E+03  0.75529086217E+02  0.16880146139E+03  0.00000000000E+00 0.  1.
<scales pt_clust_1="13000.00000" pt_clust_2="13000.00000" pt_clust_3="49.29631" pt_clust_4="147.53966"></scales>
<clustering>
<clus scale="   49.296">  2  5  1 -1</clus>
<clus scale="  147.540">  1  6  2 -1</clus>
<clus scale="  558.027">  2  3  1 -1</clus>
<clus scale="  558.027">  1  3  2 -1</clus>
</clustering>
</event>
<event>
 4   0  0.3464723E-02  0.3893811E+03  0.7816531E-02  0.1047520E+00
       21   -1    0    0  503  502  0.00000000000E+00  0.00000000000E+00  0.10407820331E+03  0.10407820331E+03  0.00000000000E+00 0.  1.
       21   -1    0    0  501  503  0.00000000000E+00  0.00000000000E+00 -0.15816846846E+04  0.15816846846E+04  0.00000000000E+00 0.  1.
  1000006    1    1    2  501    0  0.98772798887E+02 -0.13914595428E+03 -0.97567811433E+03  0.10505072323E+04  0.35000000000E+03 0.  0.
 -1000006    1    1    2    0  502 -0.98772798887E+02  0.13914595428E+03 -0.50192836698E+03  0.63525565560E+03  0.35000000000E+03 0.  0.
<scales pt_clust_1="13000.00000" pt_clust_2="13000.00000"></scales>
<clustering>
<clus scale="  389.381">  2  3  1 -1</clus>
<clus scale="  389.381">  1  3  2 -1</clus>
</clustering>
</event>
<event>
 5   1  0.3464723E-02  0.3582598E+03  0.7816531E-02  0.1059275E+00
       21   -1    0    0  501  502  0.00000000000E+00  0.00000000000E+00  0.35274062309E+03  0.35274062309E+03  0.00000000000E+00 0.  1.
       21   -1    0    0  502  503  0.00000000000E+00  0.00000000000E+00 -0.85984760218E+03  0.85984760218E+03  0.00000000000E+00 0.  1.
  1000006    1    1    2  501    0 -0.35304547530E+02 -0.81327267540E+02  0.11730154749E+03  0.37963164853E+03  0.35000000000E+03 0.  0.
 -1000006    1    1    2    0  504  0.13815008969E+01  0.51281791587E+02 -0.20045517727E+03  0.40658825461E+03  0.35000000000E+03 0.  0.
       21    1    1    2  504  503  0.33923046634E+02  0.30045475952E+02 -0.42395334932E+03  0.42636832213E+03  0.00000000000E+00 0.  1.
<scales pt_clust_1="13000.00000" pt_clust_2="13000.00000" pt_clust_3="45.31560"></scales>
<clustering>
<clus scale="   45.316">  2  5  1 -1</clus>
<clus scale="  358.260">  1  3  2 -1</clus>
<clus scale="  358.260">  1  3  2 -1</clus>
</clustering>
</event>
<event>
 5   1  0.3464723E-02  0.3765599E+03  0.7816531E-02  0.1052213E+00
       21   -1    0    0  501  502  0.00000000000E+00  0.00000000000E+00  0.11318111986E+04  0.11318111986E+04  0.00000000000E+00 0. -1.
       21   -1    0    0  504  503  0.00000000000E+00  0.00000000000E+00 -0.18878508499E+03  0.18878508499E+03  0.00000000000E+00 0. -1.
  1000006    1    1    2  501    0  0.99210341542E+02  0.11286258845E+03  0.75673734221E+03  0.84719068741E+03  0.35000000000E+03 0.  0.
 -1000006    1    1    2    0  503 -0.33136807811E+02 -0.11145449202E+03  0.15142506885E+03  0.39868496749E+03  0.35000000000E+03 0.  0.
       21    1    1    2  504  502 -0.66073533730E+02 -0.14080964263E+01  0.34863702552E+02  0.74720628683E+02  0.00000000000E+00 0.  1.
<scales pt_clust_1="13000.00000" pt_clust_2="13000.00000" pt_clust_3="66.08854"></scales>
<clustering>
<clus scale="   66.089">  2  5  1 -1</clus>
<clus scale="  376.560">  2  4  1 -1</clus>
<clus scale="  376.560">  1  3  2 -1</clus>
</clustering>
</event>
<event>
 6   2  0.3464723E-02  0.3998924E+03  0.7816531E-02  0.1043817E+00
       21   -1    0    0  504  502  0.00000000000E+00  0.00000000000E+00  0.69871453867E+03  0.69871453867E+03  0.00000000000E+00 0. -1.
       21   -1    0    0  502  503  0.00000000000E+00  0.00000000000E+00 -0.46921491714E+03  0.46921491714E+03  0.00000000000E+00 0.  1.
  1000006    1    1    2  501    0  0.99672250367E+02 -0.43521202012E+02  0.10955671763E+03  0.38253277885E+03  0.35000000000E+03 0.  0.
 -1000006    1    1    2    0  503 -0.24751666011E+03  0.87725885822E+01 -0.16532135213E+03  0.45953520519E+03  0.35000000000E+03 0.  0.
       21    1    1    2  504  505  0.88500102613E+02  0.36278484260E+02  0.14682660949E+03  0.17523255929E+03  0.00000000000E+00 0. -1.
       21    1    1    2  505  501  0.59344307131E+02 -0.15298708299E+01  0.13843764654E+03  0.15062891247E+03  0.00000000000E+00 0. -1.
<scales pt_clust_1="13000.00000" pt_clust_2="13000.00000" pt_clust_3="157.51191" pt_clust_4="32.90556"></scales>
<clustering>
<clus scale="   32.906">  5  6 -1 -1</clus>
<clus scale="  157.512">  1  5  2 -1</clus>
<clus scale="  399.892">  1  3  2 -1</clus>
<clus scale="  399.892">  1  3  2 -1</clus>
</clustering>
</event>
<event>
 6   2  0.3464723E-02  0.1184490E+04  0.7816531E-02  0.9126541E-01
       21   -1    0    0  501  502  0.00000000000E+00  0.00000000000E+00  0.16047181375E+04  0.16047181375E+04  0.00000000000E+00 0. -1.
       21   -1    0    0  504  503  0.00000000000E+00  0.00000000000E+00 -0.13601293177E+04  0.13601293177E+04  0.00000000000E+00 0.  1.
  1000006    1    1    2  501    0  0.92197894091E+03  0.65717098589E+03  0.43252133595E+03  0.12615441246E+04  0.35000000000E+03 0.  0.
 -1000006    1    1    2    0  503 -0.81820246599E+03 -0.79039954441E+03  0.26039020964E+03  0.12183963954E+04  0.35000000000E+03 0.  0.
       21    1    1    2  504  505 -0.15883957242E+02  0.28059405556E+02 -0.18762347104E+03  0.19037383545E+03  0.00000000000E+00 0. -1.
       21    1    1    2  505  502 -0.87892517679E+02  0.10516915296E+03 -0.26069925473E+03  0.29453309970E+03  0.00000000000E+00 0.  1.
<scales pt_clust_1="13000.00000" pt_clust_2="13000.00000" pt_clust_3="32.24330" pt_clust_4="144.58563"></scales>
<clustering>
<clus scale="   32.243">  2  5  1 -1</clus>
<clus scale="  144.586">  2  6  1 -1</clus>
<clus scale=" 1184.490">  1  3  2 -1</clus>
<clus scale=" 1184.490">  1  3  2 -1</clus>
</clustering>
</event>
<event>
 6   2  0.3464723E-02  0.3896907E+03  0.7816531E-02  0.1047409E+00
       21   -1    0    0  501  502  0.00000000000E+00  0.00000000000E+00  0.45927345779E+03  0.45927345779E+03  0.00000000000E+00 0.  1.
       21   -1    0    0  504  503  0.00000000000E+00  0.00000000000E+00 -0.20615757716E+04  0.20615757716E+04  0.00000000000E+00 0. -1.
  1000006    1    1    2  501    0  0.18145275593E+03 -0.15074838519E+03 -0.33692719820E+03  0.54006491754E+03  0.35000000000E+03 0.  0.
 -1000006    1    1    2    0  505 -0.85034447512E+02  0.17570045823E+03 -0.14750147371E+04  0.15284861736E+04  0.35000000000E+03 0.  0.
       21    1    1    2  504  502 -0.11960220950E+03  0.23310048871E+02  0.31300592340E+03  0.33588800958E+03  0.00000000000E+00 0.  1.
       21    1    1    2  505  503  0.23183901084E+02 -0.48262121908E+02 -0.10336630186E+03  0.11641012860E+03  0.00000000000E+00 0.  1.
<scales pt_clust_1="13000.00000" pt_clust_2="13000.00000" pt_clust_3="121.66530" pt_clust_4="53.54181"></scales>
<clustering>
<clus scale="   53.542">  2  6  1 -1</clus>
<clus scale="  121.665">  1  5  2 -1</clus>
<clus scale="  389.691">  2  4  1 -1</clus>
<clus scale="  389.691">  1  3  2 -1</clus>
</clustering>
</event>
<event>
 6   2  0.3464723E-02  0.7005570E+03  0.7816531E-02  0.9716280E-01
       21   -1    0    0  504  502  0.00000000000E+00  0.00000000000E+00  0.65479427818E+03  0.65479427818E+03  0.00000000000E+00 0. -1.
       21   -1    0    0  505  503  0.00000000000E+00  0.00000000000E+00 -0.97459912377E+03  0.97459912377E+03  0.00000000000E+00 0.  1.
  1000006    1    1    2  501    0  0.50915549166E+03  0.26855781874E+03 -0.19549189719E+03  0.70148392609E+03  0.35000000000E+03 0.  0.
 -1000006    1    1    2    0  502 -0.60214617994E+03 -0.22306737758E+03 -0.22220616678E+03  0.76433936018E+03  0.35000000000E+03 0.  0.
       21    1    1    2  504  503  0.66059492906E+02 -0.25465117209E+02  0.10744842389E+03  0.12867592080E+03  0.00000000000E+00 0. -1.
       21    1    1    2  505  501  0.26931195374E+02 -0.20025323953E+02 -0.95552055176E+01  0.34894194878E+02  0.00000000000E+00 0.  1.
<scales pt_clust_1="13000.00000" pt_clust_2="13000.00000" pt_clust_3="71.15819" pt_clust_4="33.56044"></scales>
<clustering>
<clus scale="   33.560">  2  6  1 -1</clus>
<clus scale="   71.158">  1  5  2 -1</clus>
<clus scale="  700.557">  1  4  2 -1</clus>
<clus scale="  700.557">  1  3  2 -1</clus>
</clustering>
</event>
<event>
 6   2  0.3464723E-02  0.4015553E+03  0.7816531E-02  0.1043242E+00
       21   -1    0    0  502  503  0.00000000000E+00  0.00000000000E+00  0.46115704823E+03  0.46115704823E+03  0.00000000000E+00 0. -1.
        2   -1    0    0  504    0  0.00000000000E+00  0.00000000000E+00 -0.17042412050E+04  0.17042412050E+04  0.00000000000E+00 0. -1.
  1000006    1    1    2  501    0  0.11898360356E+02 -0.24947792510E+03 -0.31186530881E+03  0.53116925451E+03  0.35000000000E+03 0.  0.
 -1000006    1    1    2    0  503  0.32143059351E+02  0.18101998727E+03  0.23190249552E+03  0.45834504413E+03  0.35000000000E+03 0.  0.
       21    1    1    2  504  501 -0.50503888715E+02  0.33199169440E+02 -0.14447795705E+03  0.15661004980E+03  0.00000000000E+00 0. -1.
        2    1    1    2  502    0  0.64624690089E+01  0.35258768394E+02 -0.10186433864E+04  0.10192739047E+04  0.00000000000E+00 0. -1.
<scales pt_clust_1="13000.00000" pt_clust_2="13000.00000" pt_clust_3="63.91981" pt_clust_4="35.84612"></scales>
<clustering>
<clus scale="   35.846">  2  6  1 -1</clus>
<clus scale="   63.920">  2  5  1 -1</clus>
<clus scale="  401.555">  1  4  2 -1</clus>
<clus scale="  401.555">  1  3  2 -1</clus>
</clustering>
</event>
<event>
 5   1  0.3464723E-02  0.4919826E+03  0.7816531E-02  0.1015893E+00
       21   -1    0    0  504  502  0.00000000000E+00  0.00000000000E+00  0.28796461256E+03  0.28796461256E+03  0.00000000000E+00 0. -1.
       21   -1    0    0  501  503  0.00000000000E+00  0.00000000000E+00 -0.12478693288E+04  0.12478693288E+04  0.00000000000E+00 0. -1.
  1000006    1    1    2  501    0  0.58913077510E+02 -0.33253503397E+03 -0.69946125436E+03  0.85193682035E+03  0.35000000000E+03 0.  0.
 -1000006    1    1    2    0  502 -0.11304569058E+03  0.33115811969E+03 -0.87397676223E+02  0.50257674260E+03  0.35000000000E+03 0.  0.
       21    1    1    2  504  503  0.54132613065E+02  0.13769142804E+01 -0.17304578563E+03  0.18132037838E+03  0.00000000000E+00 0. -1.
<scales pt_clust_1="13000.00000" pt_clust_2="13000.00000" pt_clust_3="54.15012"></scales>
<clustering>
<clus scale="   54.150">  2  5  1 -1</clus>
<clus scale="  491.983">  2  3  1 -1</clus>
<clus scale="  491.983">  1  3  2 -1</clus>
</clustering>
</event>
<event>
 6   2  0.3464723E-02  0.4429139E+03  0.7816531E-02  0.1029857E+00
        1   -1    0    0  501    0  0.00000000000E+00  0.00000000000E+00  0.17250161441E+04  0.17250161441E+04  0.00000000000E+00 0.  1.
       21   -1    0    0  502  503  0.00000000000E+00  0.00000000000E+00 -0.11310691771E+04  0.11310691771E+04  0.00000000000E+00 0.  1.
  1000006    1    1    2  501    0  0.22865481865E+03 -0.10743497049E+03  0.46474682041E+03  0.63428298578E+03  0.35000000000E+03 0.  0.
 -1000006    1    1    2    0  504 -0.24335736785E+03  0.10348683931E+03 -0.37991519170E+03  0.58031705755E+03  0.35000000000E+03 0.  0.
       21    1    1    2  504  503 -0.25922131576E+02 -0.32594362417E+02 -0.56472356942E+03  0.56625706108E+03  0.00000000000E+00 0.  1.
        1    1    1    2  502    0  0.40624680781E+02  0.36542493602E+02  0.10738389077E+04  0.10752282168E+04  0.00000000000E+00 0.  1.
<scales pt_clust_1="13000.00000" pt_clust_2="13000.00000" pt_clust_3="41.64552" pt_clust_4="54.59129"></scales>
<clustering>
<clus scale="   41.646">  2  5  1 -1</clus>
<clus scale="   54.591">  1  6  2 -1</clus>
<clus scale="  442.914">  2  4  1 -1</clus>
<clus scale="  442.914">  2  3  1 -1</clus>
</clustering>
</event>
<event>
 5   1  0.3464723E-02  0.4867356E+03  0.7816531E-02  0.1017300E+00
       21   -1    0    0  504  502  0.00000000000E+00  0.00000000000E+00  0.10548829687E+04  0.10548829687E+04  0.00000000000E+00 0. -1.
       21   -1    0    0  502  503  0.00000000000E+00  0.00000000000E+00 -0.36499633597E+03  0.36499633597E+03  0.00000000000E+00 0. -1.
  1000006    1    1    2  501    0  0.35240355017E+03 -0.81609347499E+02  0.60237702853E+03  0.78498817333E+03  0.35000000000E+03 0.  0.
 -1000006    1    1    2    0  503 -0.32752813798E+03  0.49479145584E+02 -0.56558035529E+02  0.48520271887E+03  0.35000000000E+03 0.  0.
       21    1    1    2  504  501 -0.24875412188E+02  0.32130201914E+02  0.14406763974E+03  0.14968841246E+03  0.00000000000E+00 0. -1.
<scales pt_clust_1="13000.00000" pt_clust_2="13000.00000" pt_clust_3="40.63417"></scales>
<clustering>
<clus scale="   40.634">  1  5  2 -1</clus>
<clus scale="  486.736">  2  4  1 -1</clus>
<clus scale="  486.736">  1  3  2 -1</clus>
</clustering>
</event>
<event>
 5   1  0.3464723E-02  0.6551966E+03  0.7816531E-02  0.9797077E-01
       21   -1    0    0  504  502  0.00000000000E+00  0.00000000000E+00  0.71937602378E+03  0.71937602378E+03  0.00000000000E+00 0.  1.
       21   -1    0    0  501  503  0.00000000000E+00  0.00000000000E+00 -0.74577203357E+03  0.74577203357E+03  0.00000000000E+00 0.  1.
  1000006    1    1    2  501    0  0.14055531342E+03  0.53104894070E+03 -0.23438294003E+03  0.69224571947E+03  0.35000000000E+03 0.  0.
 -1000006    1    1    2    0  502 -0.18549273766E+03 -0.52485776599E+03  0.25711097880E+03  0.70603773671E+03  0.35000000000E+03 0.  0.
       21    1    1    2  504  503  0.44937424245E+02 -0.61911747172E+01 -0.49124048558E+02  0.66864601165E+02  0.00000000000E+00 0.  1.
<scales pt_clust_1="13000.00000" pt_clust_2="13000.00000" pt_clust_3="45.36191"></scales>
<clustering>
<clus scale="   45.362">  2  5  1 -1</clus>
<clus scale="  655.197">  2  3  1 -1</clus>
<clus scale="  655.197">  1  3  2 -1</clus>
</clustering>
</event>
<event>
 5   1  0.3464723E-02  0.4200136E+03  0.7816531E-02  0.1037062E+00
        2   -1    0    0  503    0  0.00000000000E+00  0.00000000000E+00  0.18155244383E+04  0.18155244383E+04  0.00000000000E+00 0. -1.
       21   -1    0    0  501  503  0.00000000000E+00  0.00000000000E+00 -0.11937811436E+04  0.11937811436E+04  0.00000000000E+00 0.  1.
  1000006    1    1    2  501    0  0.14161727355E+03  0.18759173721E+03 -0.84720868834E+03  0.94631320061E+03  0.35000000000E+03 0.  0.
 -1000006    1    1    2    0  502 -0.18203813952E+03 -0.14031598438E+03 -0.14855371598E+03  0.44429119533E+03  0.35000000000E+03 0.  0.
        2    1    1    2  502    0  0.40420865972E+02 -0.47275752825E+02  0.16175056990E+04  0.16187011860E+04  0.00000000000E+00 0. -1.
<scales pt_clust_1="13000.00000" pt_clust_2="13000.00000" pt_clust_3="62.20003"></scales>
<clustering>
<clus scale="   62.200">  1  5  2 -1</clus>
<clus scale="  420.014">  1  4  2 -1</clus>
<clus scale="  420.014">  2  3  1 -1</clus>
</clustering>
</event>
<event>
 6   2  0.3464723E-02  0.3670187E+03  0.7816531E-02  0.1055839E+00
       21   -1    0    0  504  502  0.00000000000E+00  0.00000000000E+00  0.22925920169E+03  0.22925920169E+03  0.00000000000E+00 0. -1.
       21   -1    0    0  505  503  0.00000000000E+00  0.00000000000E+00 -0.12959687540E+04  0.12959687540E+04  0.00000000000E+00 0. -1.
  1000006    1    1    2  501    0 -0.11875930127E+03 -0.13240734774E+03 -0.42457450411E+03  0.57827241583E+03  0.35000000000E+03 0.  0.
 -1000006    1    1    2    0  502  0.57664538365E+02  0.56975463663E+02 -0.72122362927E+02  0.36643285562E+03  0.35000000000E+03 0.  0.
       21    1    1    2  504  503  0.47032366068E+02  0.48618877712E+02 -0.24703964473E+03  0.25613360732E+03  0.00000000000E+00 0. -1.
       21    1    1    2  505  501  0.14062396838E+02  0.26813006360E+02 -0.32297304056E+03  0.32438907695E+03  0.00000000000E+00 0. -1.
<scales pt_clust_1="13000.00000" pt_clust_2="13000.00000" pt_clust_3="75.19399" pt_clust_4="30.27686"></scales>
<clustering>
<clus scale="   30.277">  2  6  1 -1</clus>
<clus scale="   75.194">  2  5  1 -1</clus>
<clus scale="  367.019">  2  3  1 -1</clus>
<clus scale="  367.019">  1  3  2 -1</clus>
</clustering>
</event>
<event>
 6   2  0.3464723E-02  0.3812040E+03  0.7816531E-02  0.1050490E+00
       21   -1    0    0  504  503  0.00000000000E+00  0.00000000000E+00  0.17820020117E+04  0.17820020117E+04  0.00000000000E+00 0. -1.
        2   -1    0    0  501    0  0.00000000000E+00  0.00000000000E+00 -0.12291807745E+04  0.12291807745E+04  0.00000000000E+00 0. -1.
  1000006    1    1    2  501    0  0.15242169220E+03  0.10747016803E+03  0.36728593050E+03  0.54053784698E+03  0.35000000000E+03 0.  0.
 -1000006    1    1    2    0  503 -0.11214839472E+03 -0.38931378644E+02  0.98031688428E+03  0.10476708015E+04  0.35000000000E+03 0.  0.
       21    1    1    2  504  502 -0.29192593071E+02 -0.18304249268E+02  0.31255238027E+03  0.31444593087E+03  0.00000000000E+00 0.  1.
        2    1    1    2  502    0 -0.11080704413E+02 -0.50234540117E+02 -0.11073339579E+04  0.11085282068E+04  0.00000000000E+00 0. -1.
<scales pt_clust_1="13000.00000" pt_clust_2="13000.00000" pt_clust_3="34.45654" pt_clust_4="51.45194"></scales>
<clustering>
<clus scale="   34.457">  1  5  2 -1</clus>
<clus scale="   51.452">  2  6  1 -1</clus>
<clus scale="  381.204">  2  3  1 -1</clus>
<clus scale="  381.204">  1  3  2 -1</clus>
</clustering>
</event>
<event>
 5   1  0.3464723E-02  0.5797150E+03  0.7816531E-02  0.9948408E-01
       21   -1    0    0  501  502  0.00000000000E+00  0.00000000000E+00  0.45661008186E+03  0.45661008186E+03  0.00000000000E+00 0. -1.
       21   -1    0    0  504  503  0.00000000000E+00  0.00000000000E+00 -0.13753510323E+04  0.13753510323E+04  0.00000000000E+00 0.  1.
  1000006    1    1    2  501    0  0.21487102897E+03  0.36716125927E+03  0.65605855704E+02  0.55478020666E+03  0.35000000000E+03 0.  0.
 -1000006    1    1    2    0  503 -0.16923229549E+03 -0.44124097404E+03 -0.10245531736E+04  0.11813307634E+04  0.35000000000E+03 0.  0.
       21    1    1    2  504  502 -0.45638733486E+02  0.74079714778E+02  0.40206367480E+02  0.95850144088E+02  0.00000000000E+00 0. -1.
<scales pt_clust_1="13000.00000" pt_clust_2="13000.00000" pt_clust_3="87.00976"></scales>
<clustering>
<clus scale="   87.010">  1  5  2 -1</clus>
<clus scale="  579.715">  1  3  2 -1</clus>
<clus scale="  579.715">  1  3  2 -1</clus>
</clustering>
</event>
<event>
 4   0  0.3464723E-02  0.5071546E+03  0.7816531E-02  0.1011928E+00
       21   -1    0    0  501  502  0.00000000000E+00  0.00000000000E+00  0.23583379802E+04  0.23583379802E+04  0.00000000000E+00 0.  1.
       21   -1    0    0  502  503  0.00000000000E+00  0.00000000000E+00 -0.37684294282E+03  0.37684294282E+03  0.00000000000E+00 0.  1.
  1000006    1    1    2  501    0 -0.36143377098E+03  0.63807884038E+02  0.21435779753E+04  0.22027556272E+04  0.35000000000E+03 0.  0.
 -1000006    1    1    2    0  503  0.36143377098E+03 -0.63807884038E+02 -0.16208293792E+03  0.53242529583E+03  0.35000000000E+03 0.  0.
<scales pt_clust_1="13000.00000" pt_clust_2="13000.00000"></scales>
<clustering>
<clus scale="  507.155">  1  3  2 -1</clus>
<clus scale="  507.155">  1  3  2 -1</clus>
</clustering>
</event>
<event>
 5   1  0.3464723E-02  0.6669788E+03  0.7816531E-02  0.9775431E-01
        2   -1    0    0  502    0  0.00000000000E+00  0.00000000000E+00  0.97635010773E+03  0.97635010773E+03  0.00000000000E+00 0.  1.
       -2   -1    0    0    0  501  0.00000000000E+00  0.00000000000E+00 -0.56112181091E+03  0.56112181091E+03  0.00000000000E+00 0. -1.
  1000006    1    1    2  502    0 -0.60063107326E+03  0.15970247518E+03  0.13658713749E+03  0.72623592095E+03  0.35000000000E+03 0.  0.
 -1000006    1    1    2    0  503  0.49953946228E+03 -0.18313858440E+03  0.30205889275E+03  0.70485387859E+03  0.35000000000E+03 0.  0.
       21    1    1    2  503  501  0.10109161098E+03  0.23436109220E+02 -0.23417733408E+02  0.10638211910E+03  0.00000000000E+00 0. -1.
<scales pt_clust_1="13000.00000" pt_clust_2="13000.00000" pt_clust_3="103.77266"></scales>
<clustering>
<clus scale="  103.773">  2  5  1 -1</clus>
<clus scale=" 1215.458">  3  4 -1 -1</clus>
<clus scale="  666.979">  1  3  2 -1</clus>
</clustering>
</event>
<event>
 6   2  0.3464723E-02  0.4077241E+03  0.7816531E-02  0.1041137E+00
       21   -1    0    0  505  502  0.00000000000E+00  0.00000000000E+00  0.83939612517E+03  0.83939612517E+03  0.00000000000E+00 0.  1.
       21   -1    0    0  502  503  0.00000000000E+00  0.00000000000E+00 -0.54882037045E+03  0.54882037045E+03  0.00000000000E+00 0.  1.
  1000006    1    1    2  501    0 -0.34371726969E+02 -0.16626921953E+03  0.13821993781E+03  0.41283364711E+03  0.35000000000E+03 0.  0.
 -1000006    1    1    2    0  504  0.38845429802E+02  0.21996868762E+03 -0.34733756140E+02  0.41665528290E+03  0.35000000000E+03 0.  0.
       21    1    1    2  504  503  0.84619952993E+02  0.40457947940E+02 -0.16153074564E+03  0.18678748294E+03  0.00000000000E+00 0. -1.
       21    1    1    2  505  501 -0.89093655827E+02 -0.94157416027E+02  0.34862031869E+03  0.37194008268E+03  0.00000000000E+00 0.  1.
<scales pt_clust_1="13000.00000" pt_clust_2="13000.00000" pt_clust_3="93.79436" pt_clust_4="126.90730"></scales>
<clustering>
<clus scale="   93.794">  2  5  1 -1</clus>
<clus scale="  126.907">  1  6  2 -1</clus>
<clus scale="  407.724">  1  3  2 -1</clus>
<clus scale="  407.724">  1  3  2 -1</clus>
</clustering>
</event>
<event>
 4   0  0.3464723E-02  0.3661658E+03  0.7816531E-02  0.1056169E+00
       21   -1    0    0  501  502  0.00000000000E+00  0.00000000000E+00  0.29687799610E+03  0.29687799610E+03  0.00000000000E+00 0. -1.
       21   -1    0    0  502  503  0.00000000000E+00  0.00000000000E+00 -0.50464887241E+03  0.50464887241E+03  0.00000000000E+00 0. -1.
  1000006    1    1    2  501    0  0.98901340962E+02  0.42378659670E+02  0.26020954096E+02  0.36708924813E+03  0.35000000000E+03 0.  0.
 -1000006    1    1    2    0  503 -0.98901340962E+02 -0.42378659670E+02 -0.23379183040E+03  0.43443762038E+03  0.35000000000E+03 0.  0.
<scales pt_clust_1="13000.00000" pt_clust_2="13000.00000"></scales>
<clustering>
<clus scale="  366.166">  1  3  2 -1</clus>
<clus scale="  366.166">  1  3  2 -1</clus>
</clustering>
</event>
<event>
 5   1  0.3464723E-02  0.4213222E+03  0.7816531E-02  0.1036637E+00
       21   -1    0    0  501  502  0.00000000000E+00  0.00000000000E+00  0.86579569033E+03  0.86579569033E+03  0.00000000000E+00 0.  1.
       21   -1    0    0  504  503  0.00000000000E+00  0.00000000000E+00 -0.45486927211E+03  0.45486927211E+03  0.00000000000E+00 0.  1.
  1000006    1    1    2  501    0  0.17949223210E+03  0.12140842362E+03  0.58473429322E+03  0.71510255235E+03  0.35000000000E+03 0.  0.
 -1000006    1    1    2    0  503 -0.24657521283E+03 -0.19629153401E+03 -0.10170693586E+03  0.48184437603E+03  0.35000000000E+03 0.  0.
       21    1    1    2  504  502  0.67082980732E+02  0.74883110392E+02 -0.72100939139E+02  0.12371803406E+03  0.00000000000E+00 0.  1.
<scales pt_clust_1="13000.00000" pt_clust_2="13000.00000" pt_clust_3="100.53659"></scales>
<clustering>
<clus scale="  100.537">  2  5  1 -1</clus>
<clus scale="  421.322">  1  3  2 -1</clus>
<clus scale="  421.322">  1  3  2 -1</clus>
</clustering>
</event>
<event>
 4   0  0.3464723E-02  0.3785149E+03  0.7816531E-02  0.1051484E+00
       21   -1    0    0  501  502  0.00000000000E+00  0.00000000000E+00  0.51831161291E+03  0.51831161291E+03  0.00000000000E+00 0.  1.
       21   -1    0    0  502  503  0.00000000000E+00  0.00000000000E+00 -0.27690930420E+03  0.27690930420E+03  0.00000000000E+00 0.  1.
  1000006    1    1    2  501    0  0.44446204426E+02 -0.13710609065E+03  0.13735403726E+03  0.40266571338E+03  0.35000000000E+03 0.  0.
 -1000006    1    1    2    0  503 -0.44446204426E+02  0.13710609065E+03  0.10404827145E+03  0.39255520373E+03  0.35000000000E+03 0.  0.
<scales pt_clust_1="13000.00000" pt_clust_2="13000.00000"></scales>
<clustering>
<clus scale="  378.515">  1  3  2 -1</clus>
<clus scale="  378.515">  1  3  2 -1</clus>
</clustering>
</event>
<event>
 6   2  0.3464723E-02  0.4772616E+03  0.7816531E-02  0.1019890E+00
       21   -1    0    0  501  502  0.00000000000E+00  0.00000000000E+00  0.85062589705E+03  0.85062589705E+03  0.00000000000E+00 0. -1.
       21   -1    0    0  502  503  0.00000000000E+00  0.00000000000E+00 -0.87002108620E+03  0.87002108620E+03  0.00000000000E+00 0.  1.
  1000006    1    1    2  501    0 -0.17933132810E+03 -0.29436258828E+03  0.53950611071E+03  0.72964094054E+03  0.35000000000E+03 0.  0.
 -1000006    1    1    2    0  505  0.25731207749E+03  0.14799641786E+03 -0.61881543778E+02  0.46307857906E+03  0.35000000000E+03 0.  0.
       21    1    1    2  504  503 -0.48967080582E+02  0.11400757933E+03 -0.43389895256E+03  0.45129126310E+03  0.00000000000E+00 0.  1.
       21    1    1    2  505  504 -0.29013668807E+02  0.32358591095E+02 -0.63120803528E+02  0.76636200541E+02  0.00000000000E+00 0.  1.
<scales pt_clust_1="13000.00000" pt_clust_2="13000.00000" pt_clust_3="177.98531" pt_clust_4="38.23980"></scales>
<clustering>
<clus scale="   38.240">  5  6 -1 -1</clus>
<clus scale="  177.985">  2  5  1 -1</clus>
<clus scale="  477.262">  2  4  1 -1</clus>
<clus scale="  477.262">  1  3  2 -1</clus>
</clustering>
</event>
<event>
 4   0  0.3464723E-02  0.4422287E+03  0.7816531E-02  0.1030065E+00
       21   -1    0    0  503  502  0.00000000000E+00  0.00000000000E+00  0.76712231194E+02  0.76712231194E+02  0.00000000000E+00 0. -1.
       21   -1    0    0  501  503  0.00000000000E+00  0.00000000000E+00 -0.29948195361E+04  0.29948195361E+04  0.00000000000E+00 0. -1.
  1000006    1    1    2  501    0 -0.13205550979E+03  0.23585489797E+03 -0.20513643225E+04  0.20984903560E+04  0.35000000000E+03 0.  0.
 -1000006    1    1    2    0  502  0.13205550979E+03 -0.23585489797E+03 -0.86674298242E+03  0.97304141131E+03  0.35000000000E+03 0.  0.
<scales pt_clust_1="13000.00000" pt_clust_2="13000.00000"></scales>
<clustering>
<clus scale="  442.229">  2  3  1 -1</clus>
<clus scale="  442.229">  1  3  2 -1</clus>
</clustering>
</event>
<event>
 5   1  0.3464723E-02  0.5216601E+03  0.7816531E-02  0.1008275E+00
       21   -1    0    0  501  502  0.00000000000E+00  0.00000000000E+00  0.11959781656E+04  0.11959781656E+04  0.00000000000E+00 0. -1.
       21   -1    0    0  502  503  0.00000000000E+00  0.00000000000E+00 -0.27531209575E+03  0.27531209575E+03  0.00000000000E+00 0. -1.
  1000006    1    1    2  501    0  0.28028345589E+02  0.40089307261E+03  0.65414967105E+03  0.84374915464E+03  0.35000000000E+03 0.  0.
 -1000006    1    1    2    0  504 -0.29591954763E+02 -0.36245286204E+03  0.29035391973E+03  0.58228271457E+03  0.35000000000E+03 0.  0.
       21    1    1    2  504  503  0.15636091742E+01 -0.38440210569E+02 -0.23837520868E+02  0.45258392188E+02  0.00000000000E+00 0. -1.
<scales pt_clust_1="13000.00000" pt_clust_2="13000.00000" pt_clust_3="38.47200"></scales>
<clustering>
<clus scale="   38.472">  2  5  1 -1</clus>
<clus scale="  521.660">  2  4  1 -1</clus>
<clus scale="  521.660">  1  3  2 -1</clus>
</clustering>
</event>
<event>
 5   1  0.3464723E-02  0.6830253E+03  0.7816531E-02  0.9746710E-01
       21   -1    0    0  504  502  0.00000000000E+00  0.00000000000E+00  0.24255446221E+04  0.24255446221E+04  0.00000000000E+00 0. -1.
       21   -1    0    0  501  503  0.00000000000E+00  0.00000000000E+00 -0.33576018606E+03  0.33576018606E+03  0.00000000000E+00 0.  1.
  1000006    1    1    2  501    0 -0.25788614150E+02  0.58746498266E+03  0.24409146464E+03  0.72654029591E+03  0.35000000000E+03 0.  0.
 -1000006    1    1    2    0  502 -0.16640667691E+02 -0.58359568584E+03  0.11398479101E+04  0.13276347745E+04  0.35000000000E+03 0.  0.
       21    1    1    2  504  503  0.42429281841E+02 -0.38692968140E+01  0.70584506129E+03  0.70712973772E+03  0.00000000000E+00 0.  1.
<scales pt_clust_1="13000.00000" pt_clust_2="13000.00000" pt_clust_3="42.60534"></scales>
<clustering>
<clus scale="   42.605">  1  5  2 -1</clus>
<clus scale="  683.025">  2  3  1 -1</clus>
<clus scale="  683.025">  1  3  2 -1</clus>
</clustering>
</event>
<event>
 5   1  0.3464723E-02  0.4879645E+03  0.7816531E-02  0.1016969E+00
       21   -1    0    0  502  503  0.00000000000E+00  0.00000000000E+00  0.24252613041E+04  0.24252613041E+04  0.00000000000E+00 0. -1.
       -1   -1    0    0    0  501  0.00000000000E+00  0.00000000000E+00 -0.32783034937E+03  0.32783034937E+03  0.00000000000E+00 0. -1.
  1000006    1    1    2  502    0  0.11377287318E+03 -0.35835063648E+03  0.12821908602E+04  0.13812577049E+04  0.35000000000E+03 0.  0.
 -1000006    1    1    2    0  501 -0.12757368542E+03  0.27732362904E+03  0.10365064506E+04  0.11357944631E+04  0.35000000000E+03 0.  0.
       -1    1    1    2    0  503  0.13800812237E+02  0.81027007433E+02 -0.22126635606E+03  0.23603948542E+03  0.00000000000E+00 0. -1.
<scales pt_clust_1="13000.00000" pt_clust_2="13000.00000" pt_clust_3="82.19391"></scales>
<clustering>
<clus scale="   82.194">  2  5  1 -1</clus>
<clus scale="  487.964">  2  4  1 -1</clus>
<clus scale="  487.964">  1  3  2 -1</clus>
</clustering>
</event>
<event>
 4   0  0.3464723E-02  0.3677969E+03  0.7816531E-02  0.1055539E+00
       21   -1    0    0  503  502  0.00000000000E+00  0.00000000000E+00  0.10291107054E+03  0.10291107054E+03  0.00000000000E+00 0. -1.
       21   -1    0    0  501  503  0.00000000000E+00  0.00000000000E+00 -0.19616524784E+04  0.19616524784E+04  0.00000000000E+00 0. -1.
  1000006    1    1    2  501    0  0.10613517789E+03  0.38856835598E+02 -0.15222923300E+04  0.15660933777E+04  0.35000000000E+03 0.  0.
 -1000006    1    1    2    0  502 -0.10613517789E+03 -0.38856835598E+02 -0.33644907793E+03  0.49847017132E+03  0.35000000000E+03 0.  0.
<scales pt_clust_1="13000.00000" pt_clust_2="13000.00000"></scales>
<clustering>
<clus scale="  367.797">  2  3  1 -1</clus>
<clus scale="  367.797">  1  3  2 -1</clus>
</clustering>
</event>
<event>
 6   2  0.3464723E-02  0.3845987E+03  0.7816531E-02  0.1049247E+00
       21   -1    0    0  504  502  0.00000000000E+00  0.00000000000E+00  0.61115667621E+03  0.61115667621E+03  0.00000000000E+00 0. -1.
       21   -1    0    0  502  503  0.00000000000E+00  0.00000000000E+00 -0.83550076422E+03  0.83550076422E+03  0.00000000000E+00 0. -1.
  1000006    1    1    2  501    0  0.21920944243E+02 -0.97551348339E+02 -0.15473584566E+03  0.39552493637E+03  0.35000000000E+03 0.  0.
 -1000006    1    1    2    0  505  0.34147173055E+03 -0.19400929231E+02 -0.91990349238E+02  0.49793730848E+03  0.35000000000E+03 0.  0.
       21    1    1    2  504  501 -0.48959612807E+02  0.55607958022E+01  0.17829346997E+03  0.18497710013E+03  0.00000000000E+00 0. -1.
       21    1    1    2  505  503 -0.31443306199E+03  0.11139148177E+03 -0.15591136309E+03  0.36821809545E+03  0.00000000000E+00 0. -1.
<scales pt_clust_1="13000.00000" pt_clust_2="13000.00000" pt_clust_3="49.27440" pt_clust_4="345.45621"></scales>
<clustering>
<clus scale="   49.274">  1  5  2 -1</clus>
<clus scale="  345.456">  2  6  1 -1</clus>
<clus scale="  384.599">  1  3  2 -1</clus>
<clus scale="  384.599">  1  3  2 -1</clus>
</clustering>
</event>
<event>
 5   1  0.3464723E-02  0.3749053E+03  0.7816531E-02  0.1052833E+00
       21   -1    0    0  501  502  0.00000000000E+00  0.00000000000E+00  0.26347721958E+03  0.26347721958E+03  0.00000000000E+00 0. -1.
       21   -1    0    0  504  503  0.00000000000E+00  0.00000000000E+00 -0.62904775359E+03  0.62904775359E+03  0.00000000000E+00 0. -1.
  1000006    1    1    2  501    0 -0.73377872066E+02  0.12530762122E+03 -0.15522933358E+03  0.40949048591E+03  0.35000000000E+03 0.  0.
 -1000006    1    1    2    0  503  0.15227266521E+02 -0.12941304685E+03 -0.20059009124E+03  0.42392922882E+03  0.35000000000E+03 0.  0.
       21    1    1    2  504  502  0.58150605545E+02  0.41054256346E+01 -0.97511091901E+01  0.59105258440E+02  0.00000000000E+00 0. -1.
<scales pt_clust_1="13000.00000" pt_clust_2="13000.00000" pt_clust_3="58.29535"></scales>
<clustering>
<clus scale="   58.295">  1  5  2 -1</clus>
<clus scale="  374.905">  1  3  2 -1</clus>
<clus scale="  374.905">  1  3  2 -1</clus>
</clustering>
</event>
<event>
 6   2  0.3464723E-02  0.5111589E+03  0.7816531E-02  0.1010907E+00
       -1   -1    0    0    0  501  0.00000000000E+00  0.00000000000E+00  0.65298022727E+03  0.65298022727E+03  0.00000000000E+00 0.  1.
        1   -1    0    0  504    0  0.00000000000E+00  0.00000000000E+00 -0.71479121613E+03  0.71479121613E+03  0.00000000000E+00 0. -1.
  1000006    1    1    2  502    0  0.23428743658E+03  0.33362753924E+03 -0.86387577956E+02  0.54420653386E+03  0.35000000000E+03 0.  0.
 -1000006    1    1    2    0  503 -0.25659215234E+03 -0.24823111203E+03 -0.28994993010E+02  0.50079828997E+03  0.35000000000E+03 0.  0.
       21    1    1    2  503  501  0.56485415551E+02  0.21284535596E+02  0.15829707837E+03  0.16941546165E+03  0.00000000000E+00 0. -1.
       21    1    1    2  504  502 -0.34180699783E+02 -0.10668096281E+03 -0.10472549627E+03  0.15335115791E+03  0.00000000000E+00 0. -1.
<scales pt_clust_1="13000.00000" pt_clust_2="13000.00000" pt_clust_3="60.36252" pt_clust_4="110.18383"></scales>
<clustering>
<clus scale="   60.363">  1  5  2 -1</clus>
<clus scale="  110.184">  2  6  1 -1</clus>
<clus scale="  838.708">  3  4 -1 -1</clus>
<clus scale="  511.159">  2  3  1 -1</clus>
</clustering>
</event>
<event>
 6   2  0.3464723E-02  0.5568613E+03  0.7816531E-02  0.9999182E-01
       21   -1    0    0  504  502  0.00000000000E+00  0.00000000000E+00  0.97646059974E+03  0.97646059974E+03  0.00000000000E+00 0. -1.
       21   -1    0    0  501  503  0.00000000000E+00  0.00000000000E+00 -0.60139033568E+03  0.60139033568E+03  0.00000000000E+00 0. -1.
  1000006    1    1    2  501    0  0.30068154611E+03 -0.27208395023E+03 -0.36148220247E+02  0.53688524097E+03  0.35000000000E+03 0.  0.
 -1000006    1    1    2    0  502 -0.31214480282E+03  0.31571822414E+03  0.61073097479E+03  0.83222875374E+03  0.35000000000E+03 0.  0.
       21    1    1    2  504  505  0.25947399058E+02 -0.16917764552E+02 -0.10007575615E+03  0.10475989330E+03  0.00000000000E+00 0. -1.
       21    1    1    2  505  503 -0.14484142350E+02 -0.26716509362E+02 -0.99436734329E+02  0.10397704740E+03  0.00000000000E+00 0.  1.
<scales pt_clust_1="13000.00000" pt_clust_2="13000.00000" pt_clust_3="32.08578" pt_clust_4="30.39017"></scales>
<clustering>
<clus scale="   30.390">  2  6  1 -1</clus>
<clus scale="   32.086">  2  5  1 -1</clus>
<clus scale="  556.861">  2  3  1 -1</clus>
<clus scale="  556.861">  1  3  2 -1</clus>
</clustering>
</event>
<event>
 4   0  0.3464723E-02  0.1234741E+04  0.7816531E-02  0.9082980E-01
       21   -1    0    0  501  502  0.00000000000E+00  0.00000000000E+00  0.13281604318E+04  0.13281604318E+04  0.00000000000E+00 0. -1.
       21   -1    0    0  502  503  0.00000000000E+00  0.00000000000E+00 -0.11523910244E+04  0.11523910244E+04  0.00000000000E+00 0.  1.
  1000006    1    1    2  501    0 -0.10584554084E+03  0.11793567701E+04  0.16537431771E+03  0.12457665650E+04  0.35000000000E+03 0.  0.
 -1000006    1    1    2    0  503  0.10584554084E+03 -0.11793567701E+04  0.10395089776E+02  0.12347848912E+04  0.35000000000E+03 0.  0.
<scales pt_clust_1="13000.00000" pt_clust_2="13000.00000"></scales>
<clustering>
<clus scale=" 1234.741">  1  3  2 -1</clus>
<clus scale=" 1234.741">  1  3  2 -1</clus>
</clustering>
</event>
<event>
 4   0  0.3464723E-02  0.3531752E+03  0.7816531E-02  0.1061319E+00
       21   -1    0    0  503  502  0.00000000000E+00  0.00000000000E+00  0.48376654806E+03  0.48376654806E+03  0.00000000000E+00 0. -1.
       21   -1    0    0  501  503  0.00000000000E+00  0.00000000000E+00 -0.25835253754E+03  0.25835253754E+03  0.00000000000E+00 0. -1.
  1000006    1    1    2  501    0 -0.36805447955E+02 -0.29632945075E+02  0.96126060230E+02  0.36602318491E+03  0.35000000000E+03 0.  0.
 -1000006    1    1    2    0  502  0.36805447955E+02  0.29632945075E+02  0.12928795029E+03  0.37609590070E+03  0.35000000000E+03 0.  0.
<scales pt_clust_1="13000.00000" pt_clust_2="13000.00000"></scales>
<clustering>
<clus scale="  353.175">  2  3  1 -1</clus>
<clus scale="  353.175">  1  3  2 -1</clus>
</clustering>
</event>
<event>
 5   1  0.3464723E-02  0.3728477E+03  0.7816531E-02  0.1053609E+00
       21   -1    0    0  504  502  0.00000000000E+00  0.00000000000E+00  0.48664929426E+03  0.48664929426E+03  0.00000000000E+00 0. -1.
       21   -1    0    0  501  503  0.00000000000E+00  0.00000000000E+00 -0.49386032406E+03  0.49386032406E+03  0.00000000000E+00 0. -1.
  1000006    1    1    2  501    0  0.77807751572E+02 -0.51108451763E+02 -0.27860995696E+03  0.45693503713E+03  0.35000000000E+03 0.  0.
 -1000006    1    1    2    0  502 -0.11252233534E+03  0.78873456315E+02  0.29053673443E+03  0.47517774792E+03  0.35000000000E+03 0.  0.
       21    1    1    2  504  503  0.34714583766E+02 -0.27765004552E+02 -0.19137807266E+02  0.48396833272E+02  0.00000000000E+00 0. -1.
<scales pt_clust_1="13000.00000" pt_clust_2="13000.00000" pt_clust_3="44.45220"></scales>
<clustering>
<clus scale="   44.452">  2  5  1 -1</clus>
<clus scale="  372.848">  2  3  1 -1</clus>
<clus scale="  372.848">  1  3  2 -1</clus>
</clustering>
</event>
<event>
 6   2  0.3464723E-02  0.3683759E+03  0.7816531E-02  0.1055316E+00
        2   -1    0    0  504    0  0.00000000000E+00  0.00000000000E+00  0.89883765779E+03  0.89883765779E+03  0.00000000000E+00 0. -1.
       21   -1    0    0  501  503  0.00000000000E+00  0.00000000000E+00 -0.10231417386E+04  0.10231417386E+04  0.00000000000E+00 0. -1.
  1000006    1    1    2  501    0 -0.77331818760E+02 -0.47848060832E+02 -0.59358636062E+03  0.69506432410E+03  0.35000000000E+03 0.  0.
 -1000006    1    1    2    0  502  0.19998851820E+03 -0.36657341407E+02 -0.19703626561E+03  0.45018047277E+03  0.35000000000E+03 0.  0.
       21    1    1    2  504  503 -0.10467847164E+03  0.51606807427E+02  0.76059160759E+01  0.11695595306E+03  0.00000000000E+00 0. -1.
        2    1    1    2  502    0 -0.17978227808E+02  0.32898594812E+02  0.65871262937E+03  0.65977864645E+03  0.00000000000E+00 0. -1.
<scales pt_clust_1="13000.00000" pt_clust_2="13000.00000" pt_clust_3="124.80740" pt_clust_4="37.49045"></scales>
<clustering>
<clus scale="   37.490">  1  6  2 -1</clus>
<clus scale="  124.807">  1  5  2 -1</clus>
<clus scale="  368.376">  1  4  2 -1</clus>
<clus scale="  368.376">  2  3  1 -1</clus>
</clustering>
</event>
<event>
 4   0  0.3464723E-02  0.4219344E+03  0.7816531E-02  0.1036439E+00
       21   -1    0    0  503  502  0.00000000000E+00  0.00000000000E+00  0.24731843195E+03  0.24731843195E+03  0.00000000000E+00 0.  1.
       21   -1    0    0  501  503  0.00000000000E+00  0.00000000000E+00 -0.95399064140E+03  0.95399064140E+03  0.00000000000E+00 0.  1.
  1000006    1    1    2  501    0 -0.18569071319E+03  0.14507776553E+03 -0.65091663197E+03  0.77570681368E+03  0.35000000000E+03 0.  0.
 -1000006    1    1    2    0  502  0.18569071319E+03 -0.14507776553E+03 -0.55755577479E+02  0.42560225967E+03  0.35000000000E+03 0.  0.
<scales pt_clust_1="13000.00000" pt_clust_2="13000.00000"></scales>
<clustering>
<clus scale="  421.934">  2  3  1 -1</clus>
<clus scale="  421.934">  1  3  2 -1</clus>
</clustering>
</event>
<event>
 4   0  0.3464723E-02  0.3595043E+03  0.7816531E-02  0.1058780E+00
       21   -1    0    0  503  502  0.00000000000E+00  0.00000000000E+00  0.82910362019E+03  0.82910362019E+03  0.00000000000E+00 0. -1.
       21   -1    0    0  501  503  0.00000000000E+00  0.00000000000E+00 -0.15597933029E+03  0.15597933029E+03  0.00000000000E+00 0. -1.
  1000006    1    1    2  501    0 -0.73559085867E+02 -0.36501715333E+02  0.32433374394E+03  0.48418559644E+03  0.35000000000E+03 0.  0.
 -1000006    1    1    2    0  502  0.73559085867E+02  0.36501715333E+02  0.34879054595E+03  0.50089735404E+03  0.35000000000E+03 0.  0.
<scales pt_clust_1="13000.00000" pt_clust_2="13000.00000"></scales>
<clustering>
<clus scale="  359.504">  2  3  1 -1</clus>
<clus scale="  359.504">  1  3  2 -1</clus>
</clustering>
</event>
<event>
 4   0  0.3464723E-02  0.3753795E+03  0.7816531E-02  0.1052655E+00
       21   -1    0    0  501  502  0.00000000000E+00  0.00000000000E+00  0.11799419638E+03  0.11799419638E+03  0.00000000000E+00 0. -1.
       21   -1    0    0  502  503  0.00000000000E+00  0.00000000000E+00 -0.11973760688E+04  0.11973760688E+04  0.00000000000E+00 0. -1.
  1000006    1    1    2  501    0  0.15599698938E+02  0.13478293974E+03 -0.50586915250E+03  0.62993125887E+03  0.35000000000E+03 0.  0.
 -1000006    1    1    2    0  503 -0.15599698938E+02 -0.13478293974E+03 -0.57351271988E+03  0.68543900627E+03  0.35000000000E+03 0.  0.
<scales pt_clust_1="13000.00000" pt_clust_2="13000.00000"></scales>
<clustering>
<clus scale="  375.380">  1  3  2 -1</clus>
<clus scale="  375.380">  1  3  2 -1</clus>
</clustering>
</event>
<event>
 5   1  0.3464723E-02  0.3612861E+03  0.7816531E-02  0.1058076E+00
       21   -1    0    0  504  502  0.00000000000E+00  0.00000000000E+00  0.15596621301E+04  0.15596621301E+04  0.00000000000E+00 0.  1.
       21   -1    0    0  501  503  0.00000000000E+00  0.00000000000E+00 -0.24045074420E+03  0.24045074420E+03  0.00000000000E+00 0.  1.
  1000006    1    1    2  501    0 -0.47225637783E+02 -0.15189536052E+03  0.11734979551E+03  0.40196198318E+03  0.35000000000E+03 0.  0.
 -1000006    1    1    2    0  502 -0.12037449697E+03 -0.62350339563E+02  0.97224934774E+03  0.10421834668E+04  0.35000000000E+03 0.  0.
       21    1    1    2  504  503  0.16760013475E+03  0.21424570009E+03  0.22961224264E+03  0.35596742428E+03  0.00000000000E+00 0.  1.
<scales pt_clust_1="13000.00000" pt_clust_2="13000.00000" pt_clust_3="272.01291"></scales>
<clustering>
<clus scale="  272.013">  2  5  1 -1</clus>
<clus scale="  361.286">  2  3  1 -1</clus>
<clus scale="  361.286">  1  3  2 -1</clus>
</clustering>
</event>
<event>
 6   2  0.3464723E-02  0.4370571E+03  0.7816531E-02  0.1031654E+00
       21   -1    0    0  504  502  0.00000000000E+00  0.00000000000E+00  0.41548184987E+03  0.41548184987E+03  0.00000000000E+00 0. -1.
       21   -1    0    0  505  503  0.00000000000E+00  0.00000000000E+00 -0.18664136142E+04  0.18664136142E+04  0.00000000000E+00 0. -1.
  1000006    1    1    2  501    0 -0.18238095533E+03  0.31228871145E+03 -0.35484238926E+03  0.61579231351E+03  0.35000000000E+03 0.  0.
 -1000006    1    1    2    0  503  0.28578623118E+03 -0.56955717651E+02 -0.10670943980E+04  0.11602190215E+04  0.35000000000E+03 0.  0.
       21    1    1    2  504  501 -0.47692449022E+02 -0.27432990663E+03  0.15082889832E+03  0.31667147635E+03  0.00000000000E+00 0. -1.
       21    1    1    2  505  502 -0.55712826832E+02  0.18996912829E+02 -0.17982387542E+03  0.18921265270E+03  0.00000000000E+00 0. -1.
<scales pt_clust_1="13000.00000" pt_clust_2="13000.00000" pt_clust_3="278.00723" pt_clust_4="58.86257"></scales>
<clustering>
<clus scale="   58.863">  2  6  1 -1</clus>
<clus scale="  278.007">  1  5  2 -1</clus>
<clus scale="  437.057">  1  3  2 -1</clus>
<clus scale="  437.057">  1  3  2 -1</clus>
</clustering>
</event>
<event>
 6   2  0.3464723E-02  0.4800955E+03  0.7816531E-02  0.1019109E+00
       -4   -1    0    0    0  501  0.00000000000E+00  0.00000000000E+00  0.64896646190E+03  0.64896646190E+03  0.00000000000E+00 0. -1.
        2   -1    0    0  502    0  0.00000000000E+00  0.00000000000E+00 -0.98466640444E+03  0.98466640444E+03  0.00000000000E+00 0. -1.
  1000006    1    1    2  502    0 -0.12954026924E+03  0.32252186940E+03  0.16289568999E+03  0.51945745101E+03  0.35000000000E+03 0.  0.
 -1000006    1    1    2    0  501  0.13797387394E+03 -0.27742821133E+03  0.11909873847E+03  0.48237714688E+03  0.35000000000E+03 0.  0.
        2    1    1    2  503    0  0.26864897964E+02 -0.24794318562E+02 -0.55994337358E+03  0.56113551179E+03  0.00000000000E+00 0. -1.
       -4    1    1    2    0  503 -0.35298502665E+02 -0.20299339503E+02 -0.57750997424E+02  0.70662756655E+02  0.00000000000E+00 0. -1.
<scales pt_clust_1="13000.00000" pt_clust_2="13000.00000" pt_clust_3="36.55791" pt_clust_4="39.42015"></scales>
<clustering>
<clus scale="   36.558">  2  5  1 -1</clus>
<clus scale="   39.420">  2  6  1 -1</clus>
<clus scale="  744.679">  3  4 -1 -1</clus>
<clus scale="  480.096">  2  3  1 -1</clus>
</clustering>
</event>
<event>
 6   2  0.3464723E-02  0.4818688E+03  0.7816531E-02  0.1018623E+00
       21   -1    0    0  501  502  0.00000000000E+00  0.00000000000E+00  0.58756141874E+03  0.58756141874E+03  0.00000000000E+00 0.  1.
       21   -1    0    0  504  503  0.00000000000E+00  0.00000000000E+00 -0.90512078699E+03  0.90512078699E+03  0.00000000000E+00 0. -1.
  1000006    1    1    2  501    0  0.26631280478E+03  0.19334547489E+03  0.14248673804E+03  0.50110622942E+03  0.35000000000E+03 0.  0.
 -1000006    1    1    2    0  505 -0.22843221525E+03 -0.24874723486E+03  0.20141723266E+02  0.48678758492E+03  0.35000000000E+03 0.  0.
       21    1    1    2  504  502 -0.29826661336E+02  0.65769312129E+01 -0.10198065018E+02  0.32200718637E+02  0.00000000000E+00 0.  1.
       21    1    1    2  505  503 -0.80539281882E+01  0.48824828760E+02 -0.46998976454E+03  0.47258767275E+03  0.00000000000E+00 0. -1.
<scales pt_clust_1="13000.00000" pt_clust_2="13000.00000" pt_clust_3="30.54318" pt_clust_4="57.55450"></scales>
<clustering>
<clus scale="   30.543">  2  5  1 -1</clus>
<clus scale="   57.554">  2  6  1 -1</clus>
<clus scale="  481.869">  1  3  2 -1</clus>
<clus scale="  481.869">  1  3  2 -1</clus>
</clustering>
</event>
<event>
 5   1  0.3464723E-02  0.4479239E+03  0.7816531E-02  0.1028343E+00
       21   -1    0    0  501  502  0.00000000000E+00  0.00000000000E+00  0.67453953806E+03  0.67453953806E+03  0.00000000000E+00 0. -1.
       21   -1    0    0  504  503  0.00000000000E+00  0.00000000000E+00 -0.10667638535E+04  0.10667638535E+04  0.00000000000E+00 0. -1.
  1000006    1    1    2  501    0 -0.26035132740E+03  0.10720133033E+03 -0.22673447205E+03  0.50317338932E+03  0.35000000000E+03 0.  0.
 -1000006    1    1    2    0  503  0.22430037489E+03 -0.17043478662E+03 -0.62675600010E+03  0.77115611800E+03  0.35000000000E+03 0.  0.
       21    1    1    2  504  502  0.36050952510E+02  0.63233456285E+02  0.46126615674E+03  0.46697388420E+03  0.00000000000E+00 0. -1.
<scales pt_clust_1="13000.00000" pt_clust_2="13000.00000" pt_clust_3="72.78833"></scales>
<clustering>
<clus scale="   72.788">  1  5  2 -1</clus>
<clus scale="  447.924">  2  4  1 -1</clus>
<clus scale="  447.924">  1  3  2 -1</clus>
</clustering>
</event>
<event>
 4   0  0.3464723E-02  0.3620108E+03  0.7816531E-02  0.1057791E+00
       21   -1    0    0  503  502  0.00000000000E+00  0.00000000000E+00  0.44549813828E+03  0.44549813828E+03  0.00000000000E+00 0.  1.
       21   -1    0    0  501  503  0.00000000000E+00  0.00000000000E+00 -0.64478479629E+03  0.64478479629E+03  0.00000000000E+00 0.  1.
  1000006    1    1    2  501    0 -0.85717739590E+02  0.34702651675E+02 -0.50163538987E+03  0.61861932502E+03  0.35000000000E+03 0.  0.
 -1000006    1    1    2    0  502  0.85717739590E+02 -0.34702651675E+02  0.30234873187E+03  0.47166360955E+03  0.35000000000E+03 0.  0.
<scales pt_clust_1="13000.00000" pt_clust_2="13000.00000"></scales>
<clustering>
<clus scale="  362.011">  2  3  1 -1</clus>
<clus scale="  362.011">  1  3  2 -1</clus>
</clustering>
</event>
<event>
 4   0  0.3464723E-02  0.4888490E+03  0.7816531E-02  0.1016731E+00
       21   -1    0    0  503  502  0.00000000000E+00  0.00000000000E+00  0.10417744039E+04  0.10417744039E+04  0.00000000000E+00 0.  1.
       21   -1    0    0  501  503  0.00000000000E+00  0.00000000000E+00 -0.25592691079E+03  0.25592691079E+03  0.00000000000E+00 0. -1.
  1000006    1    1    2  501    0 -0.31597254478E+03 -0.12897539522E+03  0.18399091871E+03  0.52232744500E+03  0.35000000000E+03 0.  0.
 -1000006    1    1    2    0  502  0.31597254478E+03  0.12897539522E+03  0.60185657436E+03  0.77537386965E+03  0.35000000000E+03 0.  0.
<scales pt_clust_1="13000.00000" pt_clust_2="13000.00000"></scales>
<clustering>
<clus scale="  488.849">  2  3  1 -1</clus>
<clus scale="  488.849">  1  3  2 -1</clus>
</clustering>
</event>
<event>
 5   1  0.3464723E-02  0.3532938E+03  0.7816531E-02  0.1061271E+00
       21   -1    0    0  503  502  0.00000000000E+00  0.00000000000E+00  0.77285635908E+03  0.77285635908E+03  0.00000000000E+00 0.  1.
       21   -1    0    0  501  503  0.00000000000E+00  0.00000000000E+00 -0.20472542347E+03  0.20472542347E+03  0.00000000000E+00 0.  1.
  1000006    1    1    2  501    0  0.10794560987E+02 -0.49458782526E+02  0.13242298472E+03  0.37762221942E+03  0.35000000000E+03 0.  0.
 -1000006    1    1    2    0  504 -0.40271507026E+02  0.32040148628E+02  0.31229829585E+03  0.47188832470E+03  0.35000000000E+03 0.  0.
       21    1    1    2  504  502  0.29476946039E+02  0.17418633898E+02  0.12340965505E+03  0.12807123843E+03  0.00000000000E+00 0.  1.
<scales pt_clust_1="13000.00000" pt_clust_2="13000.00000" pt_clust_3="34.23885"></scales>
<clustering>
<clus scale="   34.239">  1  5  2 -1</clus>
<clus scale="  353.294">  2  3  1 -1</clus>
<clus scale="  353.294">  1  3  2 -1</clus>
</clustering>
</event>
<event>
 5   1  0.3464723E-02  0.5793206E+03  0.7816531E-02  0.9949263E-01
       21   -1    0    0  503  502  0.00000000000E+00  0.00000000000E+00  0.17044974940E+04  0.17044974940E+04  0.00000000000E+00 0. -1.
       21   -1    0    0  501  503  0.00000000000E+00  0.00000000000E+00 -0.23908697019E+03  0.23908697019E+03  0.00000000000E+00 0.  1.
  1000006    1    1    2  501    0 -0.48019382824E+03 -0.13961673280E+03  0.50086977983E+03  0.78958817184E+03  0.35000000000E+03 0.  0.
 -1000006    1    1    2    0  504  0.39847154326E+03  0.90025520884E+02  0.81936671231E+03  0.98017650168E+03  0.35000000000E+03 0.  0.
       21    1    1    2  504  502  0.81722284977E+02  0.49591211917E+02  0.14517403161E+03  0.17381979064E+03  0.00000000000E+00 0.  1.
<scales pt_clust_1="13000.00000" pt_clust_2="13000.00000" pt_clust_3="95.59195"></scales>
<clustering>
<clus scale="   95.592">  1  5  2 -1</clus>
<clus scale="  579.321">  2  3  1 -1</clus>
<clus scale="  579.321">  1  3  2 -1</clus>
</clustering>
</event>
<event>
 5   1  0.3464723E-02  0.6764593E+03  0.7816531E-02  0.9758359E-01
       21   -1    0    0  501  502  0.00000000000E+00  0.00000000000E+00  0.58721503032E+03  0.58721503032E+03  0.00000000000E+00 0.  1.
       21   -1    0    0  504  503  0.00000000000E+00  0.00000000000E+00 -0.12244714050E+04  0.12244714050E+04  0.00000000000E+00 0. -1.
  1000006    1    1    2  501    0  0.36176384958E+03  0.53138516569E+03 -0.35177205505E+02  0.73278967853E+03  0.35000000000E+03 0.  0.
 -1000006    1    1    2    0  503 -0.32945718492E+03 -0.38918573728E+03 -0.19813020492E+03  0.64943294719E+03  0.35000000000E+03 0.  0.
       21    1    1    2  504  502 -0.32306664659E+02 -0.14219942841E+03 -0.40394896428E+03  0.42946380961E+03  0.00000000000E+00 0. -1.
<scales pt_clust_1="13000.00000" pt_clust_2="13000.00000" pt_clust_3="145.82317"></scales>
<clustering>
<clus scale="  145.823">  2  5  1 -1</clus>
<clus scale="  676.459">  1  3  2 -1</clus>
<clus scale="  676.459">  1  3  2 -1</clus>
</clustering>
</event>
<event>
 6   2  0.3464723E-02  0.4198815E+03  0.7816531E-02  0.1037105E+00
       21   -1    0    0  503  502  0.00000000000E+00  0.00000000000E+00  0.23251555602E+03  0.23251555602E+03  0.00000000000E+00 0.  1.
       21   -1    0    0  504  503  0.00000000000E+00  0.00000000000E+00 -0.18808251513E+04  0.18808251513E+04  0.00000000000E+00 0. -1.
  1000006    1    1    2  501    0 -0.17310281166E+03  0.15750993182E+03 -0.60251305023E+03  0.73504825537E+03  0.35000000000E+03 0.  0.
 -1000006    1    1    2    0  505  0.10066747276E+03 -0.20319244081E+03 -0.40696538104E+03  0.58270226484E+03  0.35000000000E+03 0.  0.
       21    1    1    2  504  501  0.98660161410E+02  0.13466904958E+03 -0.67550942214E+03  0.69583227847E+03  0.00000000000E+00 0. -1.
       21    1    1    2  505  502 -0.26224822517E+02 -0.88986540591E+02  0.36678258111E+02  0.99757908661E+02  0.00000000000E+00 0.  1.
<scales pt_clust_1="13000.00000" pt_clust_2="13000.00000" pt_clust_3="161.55533" pt_clust_4="92.77039"></scales>
<clustering>
<clus scale="   92.770">  1  6  2 -1</clus>
<clus scale="  161.555">  2  5  1 -1</clus>
<clus scale="  419.882">  2  3  1 -1</clus>
<clus scale="  419.882">  1  3  2 -1</clus>
</clustering>
</event>
<event>
 6   2  0.3464723E-02  0.3996770E+03  0.7816531E-02  0.1043892E+00
        2   -1    0    0  501    0  0.00000000000E+00  0.00000000000E+00  0.15177757789E+04  0.15177757789E+04  0.00000000000E+00 0. -1.
       21   -1    0    0  504  503  0.00000000000E+00  0.00000000000E+00 -0.39881494690E+03  0.39881494690E+03  0.00000000000E+00 0. -1.
  1000006    1    1    2  501    0  0.24461331639E+03 -0.62699407690E+02  0.13043722730E+03  0.45086667713E+03  0.35000000000E+03 0.  0.
 -1000006    1    1    2    0  503 -0.15593730514E+03 -0.93776254957E+02 -0.32738257470E+02  0.39583105314E+03  0.35000000000E+03 0.  0.
       21    1    1    2  504  502 -0.10099570233E+03  0.92725769416E+02  0.18070161836E+03  0.22682873513E+03  0.00000000000E+00 0.  1.
        2    1    1    2  502    0  0.12319691086E+02  0.63749893232E+02  0.84056024384E+03  0.84306426042E+03  0.00000000000E+00 0. -1.
<scales pt_clust_1="13000.00000" pt_clust_2="13000.00000" pt_clust_3="148.30704" pt_clust_4="64.92937"></scales>
<clustering>
<clus scale="   64.929">  1  6  2 -1</clus>
<clus scale="  148.307">  1  5  2 -1</clus>
<clus scale="  399.677">  1  3  2 -1</clus>
<clus scale="  399.677">  2  3  1 -1</clus>
</clustering>
</event>
<event>
 4   0  0.3464723E-02  0.5419745E+03  0.7816531E-02  0.1003369E+00
       21   -1    0    0  501  502  0.00000000000E+00  0.00000000000E+00  0.20601982959E+03  0.20601982959E+03  0.00000000000E+00 0. -1.
       21   -1    0    0  502  503  0.00000000000E+00  0.00000000000E+00 -0.20063711222E+04  0.20063711222E+04  0.00000000000E+00 0.  1.
  1000006    1    1    2  501    0  0.19925410689E+03  0.36267634035E+03 -0.30510818175E+03  0.62195444329E+03  0.35000000000E+03 0.  0.
 -1000006    1    1    2    0  503 -0.19925410689E+03 -0.36267634035E+03 -0.14952431109E+04  0.15904365085E+04  0.35000000000E+03 0.  0.
<scales pt_clust_1="13000.00000" pt_clust_2="13000.00000"></scales>
<clustering>
<clus scale="  541.974">  1  3  2 -1</clus>
<clus scale="  541.974">  1  3  2 -1</clus>
</clustering>
</event>
<event>
 6   2  0.3464723E-02  0.4121283E+03  0.7816531E-02  0.1039659E+00
       21   -1    0    0  504  502  0.00000000000E+00  0.00000000000E+00  0.27348169318E+03  0.27348169318E+03  0.00000000000E+00 0.  1.
       21   -1    0    0  501  503  0.00000000000E+00  0.00000000000E+00 -0.16758633074E+04  0.16758633074E+04  0.00000000000E+00 0.  1.
  1000006    1    1    2  501    0 -0.47832084990E+02  0.24190520135E+03 -0.36472322659E+03  0.56243138854E+03  0.35000000000E+03 0.  0.
 -1000006    1    1    2    0  502  0.92827677640E+02 -0.18425423993E+03 -0.93362425510E+02  0.41687305642E+03  0.35000000000E+03 0.  0.
       21    1    1    2  504  505  0.26246622475E+02  0.15848177988E+02 -0.13276915918E+02  0.33411471580E+02  0.00000000000E+00 0. -1.
       21    1    1    2  505  503 -0.71242215125E+02 -0.73499139413E+02 -0.93101904616E+03  0.93662908402E+03  0.00000000000E+00 0.  1.
<scales pt_clust_1="13000.00000" pt_clust_2="13000.00000" pt_clust_3="30.66023" pt_clust_4="102.04436"></scales>
<clustering>
<clus scale="   30.660">  1  5  2 -1</clus>
<clus scale="  102.044">  2  6  1 -1</clus>
<clus scale="  412.128">  1  4  2 -1</clus>
<clus scale="  412.128">  1  3  2 -1</clus>
</clustering>
</event>
<event>
 5   1  0.3464723E-02  0.3759426E+03  0.7816531E-02  0.1052444E+00
       21   -1    0    0  502  503  0.00000000000E+00  0.00000000000E+00  0.20861021744E+03  0.20861021744E+03  0.00000000000E+00 0.  1.
        2   -1    0    0  501    0  0.00000000000E+00  0.00000000000E+00 -0.13954037314E+04  0.13954037314E+04  0.00000000000E+00 0.  1.
  1000006    1    1    2  501    0 -0.10575664939E+03 -0.90172733501E+02 -0.89741067268E+03  0.97322222858E+03  0.35000000000E+03 0.  0.
 -1000006    1    1    2    0  503  0.12718365324E+03  0.53639952162E+02 -0.40588507604E+02  0.37841822507E+03  0.35000000000E+03 0.  0.
        2    1    1    2  502    0 -0.21427003845E+02  0.36532781339E+02 -0.24879433366E+03  0.25237349517E+03  0.00000000000E+00 0.  1.
<scales pt_clust_1="13000.00000" pt_clust_2="13000.00000" pt_clust_3="42.35281"></scales>
<clustering>
<clus scale="   42.353">  2  5  1 -1</clus>
<clus scale="  375.943">  1  4  2 -1</clus>
<clus scale="  375.943">  1  3  2 -1</clus>
</clustering>
</event>
<event>
 5   1  0.3464723E-02  0.3701393E+03  0.7816531E-02  0.1054640E+00
       21   -1    0    0  502  503  0.00000000000E+00  0.00000000000E+00  0.69304669150E+03  0.69304669150E+03  0.00000000000E+00 0.  1.
        2   -1    0    0  501    0  0.00000000000E+00  0.00000000000E+00 -0.52164476230E+03  0.52164476230E+03  0.00000000000E+00 0.  1.
  1000006    1    1    2  501    0  0.14818092943E+03 -0.79428407279E+02  0.66596066693E+02  0.39395621055E+03  0.35000000000E+03 0.  0.
 -1000006    1    1    2    0  503 -0.90426426086E+02  0.41460687921E+02  0.38641638228E+03  0.53076694290E+03  0.35000000000E+03 0.  0.
        2    1    1    2  502    0 -0.57754503345E+02  0.37967719358E+02 -0.28161051977E+03  0.28996830037E+03  0.00000000000E+00 0.  1.
<scales pt_clust_1="13000.00000" pt_clust_2="13000.00000" pt_clust_3="69.11679"></scales>
<clustering>
<clus scale="   69.117">  2  5  1 -1</clus>
<clus scale="  370.139">  1  4  2 -1</clus>
<clus scale="  370.139">  1  3  2 -1</clus>
</clustering>
</event>
<event>
 6   2  0.3464723E-02  0.8988185E+03  0.7816531E-02  0.9427060E-01
        1   -1    0    0  503    0  0.00000000000E+00  0.00000000000E+00  0.13591617015E+04  0.13591617015E+04  0.00000000000E+00 0.  1.
       21   -1    0    0  504  503  0.00000000000E+00  0.00000000000E+00 -0.28642611335E+04  0.28642611335E+04  0.00000000000E+00 0. -1.
  1000006    1    1    2  501    0  0.47358972648E+03 -0.70064974913E+03 -0.20788611744E+04  0.22714227001E+04  0.35000000000E+03 0.  0.
 -1000006    1    1    2    0  502 -0.47415513492E+03  0.66049954173E+03 -0.21097010370E+03  0.90999512155E+03  0.35000000000E+03 0.  0.
       21    1    1    2  504  501 -0.29935556313E+02  0.22960366581E+01 -0.12622776151E+03  0.12974920845E+03  0.00000000000E+00 0.  1.
        1    1    1    2  502    0  0.30500964759E+02  0.37854170743E+02  0.91095960752E+03  0.91225580492E+03  0.00000000000E+00 0.  1.
<scales pt_clust_1="13000.00000" pt_clust_2="13000.00000" pt_clust_3="30.02348" pt_clust_4="48.60922"></scales>
<clustering>
<clus scale="   30.023">  2  5  1 -1</clus>
<clus scale="   48.609">  1  6  2 -1</clus>
<clus scale="  898.819">  2  3  1 -1</clus>
<clus scale="  898.819">  2  3  1 -1</clus>
</clustering>
</event>
<event>
 4   0  0.3464723E-02  0.3648926E+03  0.7816531E-02  0.1056663E+00
       21   -1    0    0  501  502  0.00000000000E+00  0.00000000000E+00  0.42466690986E+03  0.42466690986E+03  0.00000000000E+00 0.  1.
       21   -1    0    0  502  503  0.00000000000E+00  0.00000000000E+00 -0.31546433441E+03  0.31546433441E+03  0.00000000000E+00 0.  1.
  1000006    1    1    2  501    0  0.72257681478E+02  0.73657376330E+02  0.83565850004E+02  0.37433919499E+03  0.35000000000E+03 0.  0.
 -1000006    1    1    2    0  503 -0.72257681478E+02 -0.73657376330E+02  0.25636725445E+02  0.36579204927E+03  0.35000000000E+03 0.  0.
<scales pt_clust_1="13000.00000" pt_clust_2="13000.00000"></scales>
<clustering>
<clus scale="  364.893">  1  3  2 -1</clus>
<clus scale="  364.893">  1  3  2 -1</clus>
</clustering>
</event>
<event>
 4   0  0.3464723E-02  0.3516093E+03  0.7816531E-02  0.1061956E+00
       21   -1    0    0  503  502  0.00000000000E+00  0.00000000000E+00  0.63721438937E+03  0.63721438937E+03  0.00000000000E+00 0.  1.
       21   -1    0    0  501  503  0.00000000000E+00  0.00000000000E+00 -0.22746005840E+03  0.22746005840E+03  0.00000000000E+00 0.  1.
  1000006    1    1    2  501    0  0.29953966931E+02 -0.15225916940E+02  0.39095361285E+02  0.35377608166E+03  0.35000000000E+03 0.  0.
 -1000006    1    1    2    0  502 -0.29953966931E+02  0.15225916940E+02  0.37065896968E+03  0.51089836610E+03  0.35000000000E+03 0.  0.
<scales pt_clust_1="13000.00000" pt_clust_2="13000.00000"></scales>
<clustering>
<clus scale="  351.609">  2  3  1 -1</clus>
<clus scale="  351.609">  1  3  2 -1</clus>
</clustering>
</event>
<event>
 5   1  0.3464723E-02  0.4299472E+03  0.7816531E-02  0.1033877E+00
       21   -1    0    0  504  502  0.00000000000E+00  0.00000000000E+00  0.21447552888E+03  0.21447552888E+03  0.00000000000E+00 0.  1.
       21   -1    0    0  502  503  0.00000000000E+00  0.00000000000E+00 -0.98882958159E+03  0.98882958159E+03  0.00000000000E+00 0. -1.
  1000006    1    1    2  501    0  0.18737022709E+03 -0.15804127685E+03 -0.30549685624E+03  0.52527419160E+03  0.35000000000E+03 0.  0.
 -1000006    1    1    2    0  503 -0.22175535978E+03  0.12620601466E+03 -0.45710339321E+03  0.62971970734E+03  0.35000000000E+03 0.  0.
       21    1    1    2  504  501  0.34385132697E+02  0.31835262194E+02 -0.11753803264E+02  0.48311211542E+02  0.00000000000E+00 0. -1.
<scales pt_clust_1="13000.00000" pt_clust_2="13000.00000" pt_clust_3="46.85959"></scales>
<clustering>
<clus scale="   46.860">  1  5  2 -1</clus>
<clus scale="  429.947">  1  3  2 -1</clus>
<clus scale="  429.947">  1  3  2 -1</clus>
</clustering>
</event>
<event>
 4   0  0.3464723E-02  0.4562819E+03  0.7816531E-02  0.1025865E+00
       21   -1    0    0  503  502  0.00000000000E+00  0.00000000000E+00  0.33980642636E+03  0.33980642636E+03  0.00000000000E+00 0. -1.
       21   -1    0    0  501  503  0.00000000000E+00  0.00000000000E+00 -0.77110761512E+03  0.77110761512E+03  0.00000000000E+00 0. -1.
  1000006    1    1    2  501    0 -0.21434801218E+02  0.29194821701E+03 -0.46742173240E+03  0.65320462953E+03  0.35000000000E+03 0.  0.
 -1000006    1    1    2    0  502  0.21434801218E+02 -0.29194821701E+03  0.36120543645E+02  0.45770941195E+03  0.35000000000E+03 0.  0.
<scales pt_clust_1="13000.00000" pt_clust_2="13000.00000"></scales>
<clustering>
<clus scale="  456.282">  2  3  1 -1</clus>
<clus scale="  456.282">  1  3  2 -1</clus>
</clustering>
</event>
<event>
 5   1  0.3464723E-02  0.3610212E+03  0.7816531E-02  0.1058180E+00
       21   -1    0    0  504  502  0.00000000000E+00  0.00000000000E+00  0.17010234292E+04  0.17010234292E+04  0.00000000000E+00 0.  1.
       21   -1    0    0  501  503  0.00000000000E+00  0.00000000000E+00 -0.12354431684E+03  0.12354431684E+03  0.00000000000E+00 0.  1.
  1000006    1    1    2  501    0  0.63931650546E+02 -0.12315379897E+02  0.54492983457E+03  0.65091278151E+03  0.35000000000E+03 0.  0.
 -1000006    1    1    2    0  502 -0.64802466092E+02 -0.15656901890E+03  0.73424505165E+03  0.83086040534E+03  0.35000000000E+03 0.  0.
       21    1    1    2  504  503  0.87081554600E+00  0.16888439880E+03  0.29830422615E+03  0.34279455920E+03  0.00000000000E+00 0.  1.
<scales pt_clust_1="13000.00000" pt_clust_2="13000.00000" pt_clust_3="168.88664"></scales>
<clustering>
<clus scale="  168.887">  1  5  2 -1</clus>
<clus scale="  361.021">  1  4  2 -1</clus>
<clus scale="  361.021">  1  3  2 -1</clus>
</clustering>
</event>
<event>
 5   1  0.3464723E-02  0.3560133E+03  0.7816531E-02  0.1060174E+00
       21   -1    0    0  504  502  0.00000000000E+00  0.00000000000E+00  0.87219076306E+03  0.87219076306E+03  0.00000000000E+00 0. -1.
       21   -1    0    0  501  503  0.00000000000E+00  0.00000000000E+00 -0.51159911548E+03  0.51159911548E+03  0.00000000000E+00 0. -1.
  1000006    1    1    2  501    0 -0.55134224507E+02 -0.41453527639E+02 -0.30976737264E+03  0.47245529187E+03  0.35000000000E+03 0.  0.
 -1000006    1    1    2    0  502  0.11634579935E+03 -0.16098632980E+03  0.39253499669E+03  0.56217138583E+03  0.35000000000E+03 0.  0.
       21    1    1    2  504  503 -0.61211574846E+02  0.20243985744E+03  0.27782402353E+03  0.34916320085E+03  0.00000000000E+00 0. -1.
<scales pt_clust_1="13000.00000" pt_clust_2="13000.00000" pt_clust_3="211.49173"></scales>
<clustering>
<clus scale="  211.492">  1  5  2 -1</clus>
<clus scale="  356.013">  2  3  1 -1</clus>
<clus scale="  356.013">  1  3  2 -1</clus>
</clustering>
</event>
<event>
 5   1  0.3464723E-02  0.4896354E+03  0.7816531E-02  0.1016520E+00
       21   -1    0    0  504  502  0.00000000000E+00  0.00000000000E+00  0.42404007254E+03  0.42404007254E+03  0.00000000000E+00 0. -1.
       21   -1    0    0  501  503  0.00000000000E+00  0.00000000000E+00 -0.98090759258E+03  0.98090759258E+03  0.00000000000E+00 0.  1.
  1000006    1    1    2  501    0  0.31213706619E+03  0.26263715016E+03 -0.48666734692E+03  0.72508822035E+03  0.35000000000E+03 0.  0.
 -1000006    1    1    2    0  502 -0.17365330096E+03 -0.27432494067E+03  0.69937545583E+02  0.48249445830E+03  0.35000000000E+03 0.  0.
       21    1    1    2  504  503 -0.13848376523E+03  0.11687790509E+02 -0.14013771871E+03  0.19736498647E+03  0.00000000000E+00 0.  1.
<scales pt_clust_1="13000.00000" pt_clust_2="13000.00000" pt_clust_3="138.97610"></scales>
<clustering>
<clus scale="  138.976">  2  5  1 -1</clus>
<clus scale="  489.635">  2  3  1 -1</clus>
<clus scale="  489.635">  1  3  2 -1</clus>
</clustering>
</event>
<event>
 5   1  0.3464723E-02  0.6037821E+03  0.7816531E-02  0.9897590E-01
       21   -1    0    0  501  502  0.00000000000E+00  0.00000000000E+00  0.34810603387E+03  0.34810603387E+03  0.00000000000E+00 0. -1.
       21   -1    0    0  504  503  0.00000000000E+00  0.00000000000E+00 -0.11633333639E+04  0.11633333639E+04  0.00000000000E+00 0.  1.
  1000006    1    1    2  501    0 -0.36011641869E+03  0.36655834611E+03 -0.27348711220E+03  0.67922312729E+03  0.35000000000E+03 0.  0.
 -1000006    1    1    2    0  503  0.32349062424E+03 -0.33084363638E+03 -0.50576655858E+03  0.76967753474E+03  0.35000000000E+03 0.  0.
       21    1    1    2  504  502  0.36625794448E+02 -0.35714709732E+02 -0.35973659281E+02  0.62538735774E+02  0.00000000000E+00 0.  1.
<scales pt_clust_1="13000.00000" pt_clust_2="13000.00000" pt_clust_3="51.15652"></scales>
<clustering>
<clus scale="   51.157">  2  5  1 -1</clus>
<clus scale="  603.782">  2  4  1 -1</clus>
<clus scale="  603.782">  1  3  2 -1</clus>
</clustering>
</event>
<event>
 5   1  0.3464723E-02  0.4338451E+03  0.7816531E-02  0.1032652E+00
       21   -1    0    0  504  502  0.00000000000E+00  0.00000000000E+00  0.22902187653E+03  0.22902187653E+03  0.00000000000E+00 0.  1.
       21   -1    0    0  501  503  0.00000000000E+00  0.00000000000E+00 -0.13485059630E+04  0.13485059630E+04  0.00000000000E+00 0.  1.
  1000006    1    1    2  501    0  0.11798301015E+03  0.18617306423E+03 -0.64724207783E+03  0.76811633744E+03  0.35000000000E+03 0.  0.
 -1000006    1    1    2    0  502 -0.54886726161E+02 -0.33413769636E+03 -0.41115994735E+03  0.63734845661E+03  0.35000000000E+03 0.  0.
       21    1    1    2  504  503 -0.63096283987E+02  0.14796463212E+03 -0.61082061301E+02  0.17206304550E+03  0.00000000000E+00 0.  1.
<scales pt_clust_1="13000.00000" pt_clust_2="13000.00000" pt_clust_3="160.85606"></scales>
<clustering>
<clus scale="  160.856">  1  5  2 -1</clus>
<clus scale="  433.845">  2  3  1 -1</clus>
<clus scale="  433.845">  1  3  2 -1</clus>
</clustering>
</event>
<event>
 5   1  0.3464723E-02  0.4820665E+03  0.7816531E-02  0.1018569E+00
       21   -1    0    0  501  502  0.00000000000E+00  0.00000000000E+00  0.56032830394E+03  0.56032830394E+03  0.00000000000E+00 0.  1.
       21   -1    0    0  504  503  0.00000000000E+00  0.00000000000E+00 -0.63044391237E+03  0.63044391237E+03  0.00000000000E+00 0. -1.
  1000006    1    1    2  501    0  0.32288032081E+03  0.22312875119E+03  0.15676254987E+02  0.52610254337E+03  0.35000000000E+03 0.  0.
 -1000006    1    1    2    0  503 -0.18430834041E+03 -0.23944259498E+03 -0.18013717949E+03  0.49623756818E+03  0.35000000000E+03 0.  0.
       21    1    1    2  504  502 -0.13857198039E+03  0.16313843787E+02  0.94345316078E+02  0.16843210476E+03  0.00000000000E+00 0.  1.
<scales pt_clust_1="13000.00000" pt_clust_2="13000.00000" pt_clust_3="139.52898"></scales>
<clustering>
<clus scale="  139.529">  1  5  2 -1</clus>
<clus scale="  482.067">  2  4  1 -1</clus>
<clus scale="  482.067">  1  3  2 -1</clus>
</clustering>
</event>
<event>
 6   2  0.3464723E-02  0.3575643E+03  0.7816531E-02  0.1059552E+00
       21   -1    0    0  501  502  0.00000000000E+00  0.00000000000E+00  0.11435381022E+04  0.11435381022E+04  0.00000000000E+00 0.  1.
       21   -1    0    0  504  503  0.00000000000E+00  0.00000000000E+00 -0.23329595928E+03  0.23329595928E+03  0.00000000000E+00 0.  1.
  1000006    1    1    2  501    0  0.94123637187E+02  0.52672809952E+02  0.71531650342E+03  0.80362390709E+03  0.35000000000E+03 0.  0.
 -1000006    1    1    2    0  503  0.61691927639E+02 -0.58350918544E+02  0.19095630203E+03  0.40764571986E+03  0.35000000000E+03 0.  0.
       21    1    1    2  504  505 -0.12221549308E+03 -0.11415400883E+02 -0.14471484626E+02  0.12359758086E+03  0.00000000000E+00 0.  1.
       21    1    1    2  505  502 -0.33600071742E+02  0.17093509475E+02  0.18440822080E+02  0.41966853662E+02  0.00000000000E+00 0.  1.
<scales pt_clust_1="13000.00000" pt_clust_2="13000.00000" pt_clust_3="165.51685" pt_clust_4="30.78139"></scales>
<clustering>
<clus scale="   30.781">  5  6 -1 -1</clus>
<clus scale="  165.517">  2  5  1 -1</clus>
<clus scale="  357.564">  1  3  2 -1</clus>
<clus scale="  357.564">  1  3  2 -1</clus>
</clustering>
</event>
<event>
 6   2  0.3464723E-02  0.3587458E+03  0.7816531E-02  0.1059082E+00
        2   -1    0    0  501    0  0.00000000000E+00  0.00000000000E+00  0.20938549029E+04  0.20938549029E+04  0.00000000000E+00 0. -1.
        2   -1    0    0  502    0  0.00000000000E+00  0.00000000000E+00 -0.37139168446E+03  0.37139168446E+03  0.00000000000E+00 0. -1.
  1000006    1    1    2  501    0 -0.15242448771E+03  0.35679998354E+02  0.58830549272E+03  0.70221765821E+03  0.35000000000E+03 0.  0.
 -1000006    1    1    2    0  503 -0.49259212653E+02 -0.10766478730E+03 -0.57204608899E+02  0.37388573620E+03  0.35000000000E+03 0.  0.
        2    1    1    2  502    0  0.13359584355E+03  0.36034054915E+02  0.12709187296E+04  0.12784290046E+04  0.00000000000E+00 0. -1.
        2    1    1    2  503    0  0.68087856818E+02  0.35950734030E+02 -0.79556394972E+02  0.11071418836E+03  0.00000000000E+00 0. -1.
<scales pt_clust_1="13000.00000" pt_clust_2="13000.00000" pt_clust_3="139.39120" pt_clust_4="76.99618"></scales>
<clustering>
<clus scale="   76.996">  2  6  1 -1</clus>
<clus scale="  139.391">  1  5  2 -1</clus>
<clus scale="  358.746">  1  3  2 -1</clus>
<clus scale="  358.746">  1  3  2 -1</clus>
</clustering>
</event>
<event>
 6   2  0.3464723E-02  0.3615819E+03  0.7816531E-02  0.1057959E+00
       21   -1    0    0  504  502  0.00000000000E+00  0.00000000000E+00  0.22540651853E+03  0.22540651853E+03  0.00000000000E+00 0.  1.
       21   -1    0    0  505  503  0.00000000000E+00  0.00000000000E+00 -0.14238944752E+04  0.14238944752E+04  0.00000000000E+00 0.  1.
  1000006    1    1    2  501    0  0.45437787891E+01  0.19263278337E+02 -0.38678448696E+03  0.52200953935E+03  0.35000000000E+03 0.  0.
 -1000006    1    1    2    0  502 -0.15154115858E+03  0.31832129406E+02 -0.12291007515E+03  0.40197623534E+03  0.35000000000E+03 0.  0.
       21    1    1    2  504  503  0.28986238162E+02  0.24034798298E+02 -0.21181826601E+02  0.43203510392E+02  0.00000000000E+00 0.  1.
       21    1    1    2  505  501  0.11801114163E+03 -0.75130206042E+02 -0.66761156792E+03  0.68211170861E+03  0.00000000000E+00 0.  1.
<scales pt_clust_1="13000.00000" pt_clust_2="13000.00000" pt_clust_3="37.65466" pt_clust_4="140.29263"></scales>
<clustering>
<clus scale="   37.655">  1  5  2 -1</clus>
<clus scale="  140.293">  2  6  1 -1</clus>
<clus scale="  361.582">  1  4  2 -1</clus>
<clus scale="  361.582">  1  3  2 -1</clus>
</clustering>
</event>
<event>
 4   0  0.3464723E-02  0.4453312E+03  0.7816531E-02  0.1029124E+00
       21   -1    0    0  501  502  0.00000000000E+00  0.00000000000E+00  0.10785988338E+04  0.10785988338E+04  0.00000000000E+00 0. -1.
       21   -1    0    0  502  503  0.00000000000E+00  0.00000000000E+00 -0.19849502389E+03  0.19849502389E+03  0.00000000000E+00 0. -1.
  1000006    1    1    2  501    0 -0.27524401130E+03  0.77832394383E+01  0.61339060011E+03  0.75800255466E+03  0.35000000000E+03 0.  0.
 -1000006    1    1    2    0  503  0.27524401130E+03 -0.77832394383E+01  0.26671320975E+03  0.51909130298E+03  0.35000000000E+03 0.  0.
<scales pt_clust_1="13000.00000" pt_clust_2="13000.00000"></scales>
<clustering>
<clus scale="  445.331">  1  3  2 -1</clus>
<clus scale="  445.331">  1  3  2 -1</clus>
</clustering>
</event>
<event>
 5   1  0.3464723E-02  0.5753447E+03  0.7816531E-02  0.9957921E-01
       21   -1    0    0  501  502  0.00000000000E+00  0.00000000000E+00  0.93370435184E+03  0.93370435184E+03  0.00000000000E+00 0.  1.
       21   -1    0    0  504  503  0.00000000000E+00  0.00000000000E+00 -0.45761433295E+03  0.45761433295E+03  0.00000000000E+00 0. -1.
  1000006    1    1    2  501    0 -0.42250725407E+02  0.43484005161E+03  0.46991824806E+03  0.73088586943E+03  0.35000000000E+03 0.  0.
 -1000006    1    1    2    0  503  0.77564874325E+02 -0.45918680591E+03 -0.55630630416E+02  0.58520389565E+03  0.35000000000E+03 0.  0.
       21    1    1    2  504  502 -0.35314148918E+02  0.24346754303E+02  0.61802401245E+02  0.75228919696E+02  0.00000000000E+00 0. -1.
<scales pt_clust_1="13000.00000" pt_clust_2="13000.00000" pt_clust_3="42.89351"></scales>
<clustering>
<clus scale="   42.894">  1  5  2 -1</clus>
<clus scale="  575.345">  2  4  1 -1</clus>
<clus scale="  575.345">  1  3  2 -1</clus>
</clustering>
</event>
<event>
 6   2  0.3464723E-02  0.3504835E+03  0.7816531E-02  0.1062417E+00
       21   -1    0    0  501  502  0.00000000000E+00  0.00000000000E+00  0.17477180697E+04  0.17477180697E+04  0.00000000000E+00 0.  1.
       21   -1    0    0  505  503  0.00000000000E+00  0.00000000000E+00 -0.58320446727E+03  0.58320446727E+03  0.00000000000E+00 0.  1.
  1000006    1    1    2  501    0  0.20648565390E+03  0.33818554551E+02  0.38961345301E+03  0.56398462981E+03  0.35000000000E+03 0.  0.
 -1000006    1    1    2    0  504  0.11252975222E+03 -0.40372776107E+02  0.23191114944E+02  0.37058161584E+03  0.35000000000E+03 0.  0.
       21    1    1    2  504  503 -0.95990957376E+02  0.92827057537E+02 -0.29439765499E+03  0.32326630782E+03  0.00000000000E+00 0.  1.
       21    1    1    2  505  502 -0.22302444874E+03 -0.86272835981E+02  0.10461066895E+04  0.10730899835E+04  0.00000000000E+00 0.  1.
<scales pt_clust_1="13000.00000" pt_clust_2="13000.00000" pt_clust_3="133.53324" pt_clust_4="241.95834"></scales>
<clustering>
<clus scale="  133.533">  2  5  1 -1</clus>
<clus scale="  241.958">  1  6  2 -1</clus>
<clus scale="  350.483">  2  4  1 -1</clus>
<clus scale="  350.483">  1  3  2 -1</clus>
</clustering>
</event>
<event>
 4   0  0.3464723E-02  0.3609010E+03  0.7816531E-02  0.1058228E+00
       21   -1    0    0  503  502  0.00000000000E+00  0.00000000000E+00  0.21825622475E+04  0.21825622475E+04  0.00000000000E+00 0.  1.
       21   -1    0    0  501  503  0.00000000000E+00  0.00000000000E+00 -0.85649529429E+02  0.85649529429E+02  0.00000000000E+00 0.  1.
  1000006    1    1    2  501    0 -0.86737530179E+02 -0.15036666220E+02  0.42393768420E+03  0.55675188420E+03  0.35000000000E+03 0.  0.
 -1000006    1    1    2    0  502  0.86737530179E+02  0.15036666220E+02  0.16729750339E+04  0.17114598928E+04  0.35000000000E+03 0.  0.
<scales pt_clust_1="13000.00000" pt_clust_2="13000.00000"></scales>
<clustering>
<clus scale="  360.901">  2  3  1 -1</clus>
<clus scale="  360.901">  1  3  2 -1</clus>
</clustering>
</event>
<event>
 5   1  0.3464723E-02  0.9930645E+03  0.7816531E-02  0.9316184E-01
       21   -1    0    0  501  502  0.00000000000E+00  0.00000000000E+00  0.13458424490E+04  0.13458424490E+04  0.00000000000E+00 0.  1.
       21   -1    0    0  504  503  0.00000000000E+00  0.00000000000E+00 -0.90273340064E+03  0.90273340064E+03  0.00000000000E+00 0. -1.
  1000006    1    1    2  501    0 -0.80127787875E+03  0.57628834410E+03  0.47160345153E+03  0.11485052503E+04  0.35000000000E+03 0.  0.
 -1000006    1    1    2    0  503  0.74573959872E+03 -0.50221853839E+03 -0.11714500686E+03  0.97189194977E+03  0.35000000000E+03 0.  0.
       21    1    1    2  504  502  0.55538280036E+02 -0.74069805712E+02  0.88650603717E+02  0.12817864958E+03  0.00000000000E+00 0.  1.
<scales pt_clust_1="13000.00000" pt_clust_2="13000.00000" pt_clust_3="92.57881"></scales>
<clustering>
<clus scale="   92.579">  1  5  2 -1</clus>
<clus scale="  993.065">  1  3  2 -1</clus>
<clus scale="  993.065">  1  3  2 -1</clus>
</clustering>
</event>
<event>
 6   2  0.3464723E-02  0.3610774E+03  0.7816531E-02  0.1058158E+00
       21   -1    0    0  504  502  0.00000000000E+00  0.00000000000E+00  0.15320922528E+04  0.15320922528E+04  0.00000000000E+00 0. -1.
       21   -1    0    0  501  503  0.00000000000E+00  0.00000000000E+00 -0.17134656165E+03  0.17134656165E+03  0.00000000000E+00 0. -1.
  1000006    1    1    2  501    0 -0.67422995510E+02 -0.73532386906E+02  0.32137355117E+03  0.48552428532E+03  0.35000000000E+03 0.  0.
 -1000006    1    1    2    0  502 -0.45787410400E+02  0.10373887553E+03  0.35541838173E+03  0.51154713108E+03  0.35000000000E+03 0.  0.
       21    1    1    2  504  505  0.74456857975E+02 -0.33464300682E+02  0.64888860256E+03  0.65400313582E+03  0.00000000000E+00 0. -1.
       21    1    1    2  505  503  0.38753547934E+02  0.32578120594E+01  0.35065155730E+02  0.52364262272E+02  0.00000000000E+00 0. -1.
<scales pt_clust_1="13000.00000" pt_clust_2="13000.00000" pt_clust_3="82.16652" pt_clust_4="38.89024"></scales>
<clustering>
<clus scale="   38.890">  2  6  1 -1</clus>
<clus scale="   82.167">  1  5  2 -1</clus>
<clus scale="  361.077">  1  4  2 -1</clus>
<clus scale="  361.077">  1  3  2 -1</clus>
</clustering>
</event>
<event>
 5   1  0.3464723E-02  0.3861230E+03  0.7816531E-02  0.1048694E+00
       21   -1    0    0  501  502  0.00000000000E+00  0.00000000000E+00  0.13237255518E+04  0.13237255518E+04  0.00000000000E+00 0. -1.
       21   -1    0    0  504  503  0.00000000000E+00  0.00000000000E+00 -0.20758650338E+03  0.20758650338E+03  0.00000000000E+00 0. -1.
  1000006    1    1    2  501    0  0.12779001230E+03  0.10731609917E+03  0.36850368034E+03  0.53492241943E+03  0.35000000000E+03 0.  0.
 -1000006    1    1    2    0  503 -0.14914305892E+03 -0.66110297277E+02  0.17858340276E+03  0.42544829906E+03  0.35000000000E+03 0.  0.
       21    1    1    2  504  502  0.21353046620E+02 -0.41205801888E+02  0.56905196532E+03  0.57094133670E+03  0.00000000000E+00 0. -1.
<scales pt_clust_1="13000.00000" pt_clust_2="13000.00000" pt_clust_3="46.40981"></scales>
<clustering>
<clus scale="   46.410">  1  5  2 -1</clus>
<clus scale="  386.123">  1  3  2 -1</clus>
<clus scale="  386.123">  1  3  2 -1</clus>
</clustering>
</event>
<event>
 5   1  0.3464723E-02  0.4535113E+03  0.7816531E-02  0.1026680E+00
       21   -1    0    0  504  502  0.00000000000E+00  0.00000000000E+00  0.91502776010E+03  0.91502776010E+03  0.00000000000E+00 0. -1.
       21   -1    0    0  502  503  0.00000000000E+00  0.00000000000E+00 -0.32670109403E+03  0.32670109403E+03  0.00000000000E+00 0.  1.
  1000006    1    1    2  501    0  0.97349288162E+02  0.28071018121E+03  0.34196255280E+03  0.57246264268E+03  0.35000000000E+03 0.  0.
 -1000006    1    1    2    0  503  0.51434420186E+02 -0.29327231851E+03  0.12328882927E+03  0.47576705204E+03  0.35000000000E+03 0.  0.
       21    1    1    2  504  501 -0.14878370835E+03  0.12562137299E+02  0.12307528401E+03  0.19349915942E+03  0.00000000000E+00 0. -1.
<scales pt_clust_1="13000.00000" pt_clust_2="13000.00000" pt_clust_3="149.31309"></scales>
<clustering>
<clus scale="  149.313">  1  5  2 -1</clus>
<clus scale="  453.511">  2  4  1 -1</clus>
<clus scale="  453.511">  1  3  2 -1</clus>
</clustering>
</event>
<event>
 6   2  0.3464723E-02  0.4340821E+03  0.7816531E-02  0.1032578E+00
       21   -1    0    0  504  503  0.00000000000E+00  0.00000000000E+00  0.54281825299E+03  0.54281825299E+03  0.00000000000E+00 0. -1.
        2   -1    0    0  501    0  0.00000000000E+00  0.00000000000E+00 -0.16340593748E+04  0.16340593748E+04  0.00000000000E+00 0. -1.
  1000006    1    1    2  501    0  0.13838188550E+03  0.12549436250E+03 -0.22900853142E+03  0.45808655156E+03  0.35000000000E+03 0.  0.
 -1000006    1    1    2    0  503 -0.24347225388E+03 -0.14247615144E+03  0.30606366072E+03  0.54383191939E+03  0.35000000000E+03 0.  0.
       21    1    1    2  504  502  0.70743134774E+02 -0.69280262345E+01 -0.46322397753E+03  0.46864596662E+03  0.00000000000E+00 0.  1.
        2    1    1    2  502    0  0.34347233603E+02  0.23909815176E+02 -0.70507227358E+03  0.70631319023E+03  0.00000000000E+00 0. -1.
<scales pt_clust_1="13000.00000" pt_clust_2="13000.00000" pt_clust_3="88.12763" pt_clust_4="41.84987"></scales>
<clustering>
<clus scale="   41.850">  2  6  1 -1</clus>
<clus scale="   88.128">  2  5  1 -1</clus>
<clus scale="  434.082">  1  4  2 -1</clus>
<clus scale="  434.082">  1  3  2 -1</clus>
</clustering>
</event>
<event>
 5   1  0.3464723E-02  0.4552363E+03  0.7816531E-02  0.1026172E+00
       21   -1    0    0  503  502  0.00000000000E+00  0.00000000000E+00  0.38721016509E+03  0.38721016509E+03  0.00000000000E+00 0.  1.
       21   -1    0    0  504  503  0.00000000000E+00  0.00000000000E+00 -0.13606858764E+04  0.13606858764E+04  0.00000000000E+00 0.  1.
  1000006    1    1    2  501    0 -0.25558714782E+03 -0.25012424452E+02 -0.67226582437E+03  0.80024480637E+03  0.35000000000E+03 0.  0.
 -1000006    1    1    2    0  502  0.29658420678E+03  0.36048559398E+02  0.15795320579E+03  0.48652944985E+03  0.35000000000E+03 0.  0.
       21    1    1    2  504  501 -0.40997058963E+02 -0.11036134946E+02 -0.45916309274E+03  0.46112178528E+03  0.00000000000E+00 0. -1.
<scales pt_clust_1="13000.00000" pt_clust_2="13000.00000" pt_clust_3="42.45651"></scales>
<clustering>
<clus scale="   42.457">  2  5  1 -1</clus>
<clus scale="  455.236">  2  3  1 -1</clus>
<clus scale="  455.236">  1  3  2 -1</clus>
</clustering>
</event>
<event>
 5   1  0.3464723E-02  0.3820010E+03  0.7816531E-02  0.1050197E+00
       21   -1    0    0  503  502  0.00000000000E+00  0.00000000000E+00  0.24928888547E+03  0.24928888547E+03  0.00000000000E+00 0.  1.
       21   -1    0    0  501  503  0.00000000000E+00  0.00000000000E+00 -0.85125268633E+03  0.85125268633E+03  0.00000000000E+00 0.  1.
  1000006    1    1    2  501    0 -0.16365609615E+03  0.70289124655E+02 -0.45339303258E+03  0.59982424162E+03  0.35000000000E+03 0.  0.
 -1000006    1    1    2    0  504  0.10864979137E+03 -0.39589109149E+02 -0.20002253839E+03  0.41938179573E+03  0.35000000000E+03 0.  0.
       21    1    1    2  504  502  0.55006304779E+02 -0.30700015506E+02  0.51451770101E+02  0.81335534449E+02  0.00000000000E+00 0. -1.
<scales pt_clust_1="13000.00000" pt_clust_2="13000.00000" pt_clust_3="62.99353"></scales>
<clustering>
<clus scale="   62.994">  1  5  2 -1</clus>
<clus scale="  382.001">  2  3  1 -1</clus>
<clus scale="  382.001">  1  3  2 -1</clus>
</clustering>
</event>
<event>
 6   2  0.3464723E-02  0.4183188E+03  0.7816531E-02  0.1037615E+00
       21   -1    0    0  505  502  0.00000000000E+00  0.00000000000E+00  0.13587232243E+04  0.13587232243E+04  0.00000000000E+00 0.  1.
       21   -1    0    0  504  503  0.00000000000E+00  0.00000000000E+00 -0.53482840138E+03  0.53482840138E+03  0.00000000000E+00 0.  1.
  1000006    1    1    2  501    0  0.16873735652E+03 -0.11082902678E+03 -0.20493598877E+03  0.45304980759E+03  0.35000000000E+03 0.  0.
 -1000006    1    1    2    0  502 -0.16928273535E+03  0.15923273432E+03  0.11848822016E+04  0.12571624954E+04  0.35000000000E+03 0.  0.
       21    1    1    2  504  501 -0.30085233666E+02 -0.56973149219E+02 -0.10443062038E+03  0.12270621618E+03  0.00000000000E+00 0.  1.
       21    1    1    2  505  503  0.30630612498E+02  0.85694416802E+01 -0.51620769560E+02  0.60633106491E+02  0.00000000000E+00 0.  1.
<scales pt_clust_1="13000.00000" pt_clust_2="13000.00000" pt_clust_3="59.49027" pt_clust_4="31.80676"></scales>
<clustering>
<clus scale="   31.807">  2  6  1 -1</clus>
<clus scale="   59.490">  2  5  1 -1</clus>
<clus scale="  418.319">  2  3  1 -1</clus>
<clus scale="  418.319">  1  3  2 -1</clus>
</clustering>
</event>
<event>
 6   2  0.3464723E-02  0.4571351E+03  0.7816531E-02  0.1025615E+00
       21   -1    0    0  501  502  0.00000000000E+00  0.00000000000E+00  0.56987037117E+03  0.56987037117E+03  0.00000000000E+00 0. -1.
       21   -1    0    0  504  503  0.00000000000E+00  0.00000000000E+00 -0.19111099595E+04  0.19111099595E+04  0.00000000000E+00 0. -1.
  1000006    1    1    2  501    0  0.10969935736E+03  0.25331102172E+03  0.27338126007E+03  0.52291274233E+03  0.35000000000E+03 0.  0.
 -1000006    1    1    2    0  503  0.97833272183E+02 -0.52352527527E+03 -0.10354401103E+04  0.12158479696E+04  0.35000000000E+03 0.  0.
       21    1    1    2  504  505  0.57469808709E+02  0.54494025959E+02 -0.27008541453E+03  0.28145782796E+03  0.00000000000E+00 0. -1.
       21    1    1    2  505  502 -0.26500243825E+03  0.21572022759E+03 -0.30909532359E+03  0.46076179088E+03  0.00000000000E+00 0. -1.
<scales pt_clust_1="13000.00000" pt_clust_2="13000.00000" pt_clust_3="79.19834" pt_clust_4="339.81394"></scales>
<clustering>
<clus scale="   79.198">  2  5  1 -1</clus>
<clus scale="  339.814">  2  6  1 -1</clus>
<clus scale="  457.135">  2  4  1 -1</clus>
<clus scale="  457.135">  1  3  2 -1</clus>
</clustering>
</event>
<event>
 6   2  0.3464723E-02  0.3601558E+03  0.7816531E-02  0.1058522E+00
        2   -1    0    0  504    0  0.00000000000E+00  0.00000000000E+00  0.22369108432E+04  0.22369108432E+04  0.00000000000E+00 0.  1.
       21   -1    0    0  502  503  0.00000000000E+00  0.00000000000E+00 -0.24406529373E+03  0.24406529373E+03  0.00000000000E+00 0. -1.
  1000006    1    1    2  501    0 -0.43980305406E+02  0.86360154246E+02  0.22902975962E+03  0.42935646530E+03  0.35000000000E+03 0.  0.
 -1000006    1    1    2    0  503  0.63900157902E+02 -0.48306295628E+02  0.10037266275E+03  0.37281550371E+03  0.35000000000E+03 0.  0.
       21    1    1    2  504  501  0.28757363513E+02  0.30885698661E+02  0.61196639930E+02  0.74336673834E+02  0.00000000000E+00 0.  1.
        2    1    1    2  502    0 -0.48677216009E+02 -0.68939557278E+02  0.16022464872E+04  0.16044674941E+04  0.00000000000E+00 0.  1.
<scales pt_clust_1="13000.00000" pt_clust_2="13000.00000" pt_clust_3="42.20086" pt_clust_4="53.64720"></scales>
<clustering>
<clus scale="   42.201">  1  5  2 -1</clus>
<clus scale="   53.647">  1  6  2 -1</clus>
<clus scale="  360.156">  2  4  1 -1</clus>
<clus scale="  360.156">  2  3  1 -1</clus>
</clustering>
</event>
<event>
 6   2  0.3464723E-02  0.3666054E+03  0.7816531E-02  0.1055999E+00
       21   -1    0    0  505  502  0.00000000000E+00  0.00000000000E+00  0.56645984842E+03  0.56645984842E+03  0.00000000000E+00 0.  1.
       21   -1    0    0  501  503  0.00000000000E+00  0.00000000000E+00 -0.54392051876E+03  0.54392051876E+03  0.00000000000E+00 0.  1.
  1000006    1    1    2  501    0 -0.40680064641E+02 -0.13007893386E+03  0.14215577860E+03  0.40160137212E+03  0.35000000000E+03 0.  0.
 -1000006    1    1    2    0  502 -0.16773213909E+02  0.87250238274E+02  0.12893687320E+03  0.38343012669E+03  0.35000000000E+03 0.  0.
       21    1    1    2  504  503 -0.46165947732E+02 -0.51380334686E+02 -0.95930206089E+02  0.11821098918E+03  0.00000000000E+00 0. -1.
       21    1    1    2  505  504  0.10361922628E+03  0.94209030276E+02 -0.15262311606E+03  0.20713787919E+03  0.00000000000E+00 0.  1.
<scales pt_clust_1="13000.00000" pt_clust_2="13000.00000" pt_clust_3="69.07412" pt_clust_4="111.78292"></scales>
<clustering>
<clus scale="   69.074">  2  5  1 -1</clus>
<clus scale="  111.783">  2  6  1 -1</clus>
<clus scale="  366.605">  2  3  1 -1</clus>
<clus scale="  366.605">  1  3  2 -1</clus>
</clustering>
</event>
<event>
 6   2  0.3464723E-02  0.4088778E+03  0.7816531E-02  0.1040748E+00
       21   -1    0    0  503  502  0.00000000000E+00  0.00000000000E+00  0.25800973157E+03  0.25800973157E+03  0.00000000000E+00 0.  1.
       21   -1    0    0  501  503  0.00000000000E+00  0.00000000000E+00 -0.11782629432E+04  0.11782629432E+04  0.00000000000E+00 0.  1.
  1000006    1    1    2  501    0  0.16450753647E+03  0.17970252696E+03 -0.54767982741E+03  0.69412457175E+03  0.35000000000E+03 0.  0.
 -1000006    1    1    2    0  504 -0.74987216653E+02 -0.16824365536E+03 -0.45374391314E+03  0.60192403918E+03  0.35000000000E+03 0.  0.
       21    1    1    2  504  505 -0.46504354910E+02 -0.36534432496E+02  0.22502581145E+02  0.63275476621E+02  0.00000000000E+00 0.  1.
       21    1    1    2  505  502 -0.43015964909E+02  0.25075560899E+02  0.58667947732E+02  0.76948587268E+02  0.00000000000E+00 0.  1.
<scales pt_clust_1="13000.00000" pt_clust_2="13000.00000" pt_clust_3="64.12865" pt_clust_4="49.79113"></scales>
<clustering>
<clus scale="   49.791">  1  6  2 -1</clus>
<clus scale="   64.129">  1  5  2 -1</clus>
<clus scale="  408.878">  2  3  1 -1</clus>
<clus scale="  408.878">  1  3  2 -1</clus>
</clustering>
</event>
<event>
 6   2  0.3464723E-02  0.3625615E+03  0.7816531E-02  0.1057574E+00
       21   -1    0    0  504  502  0.00000000000E+00  0.00000000000E+00  0.13927702831E+03  0.13927702831E+03  0.00000000000E+00 0.  1.
       21   -1    0    0  505  503  0.00000000000E+00  0.00000000000E+00 -0.17198979925E+04  0.17198979925E+04  0.00000000000E+00 0. -1.
  1000006    1    1    2  501    0 -0.81903910851E+02  0.18515631955E+02 -0.55853329809E+03  0.66446258308E+03  0.35000000000E+03 0.  0.
 -1000006    1    1    2    0  502  0.88774969046E+02 -0.53375275443E+02 -0.32832477307E+03  0.49094508019E+03  0.35000000000E+03 0.  0.
       21    1    1    2  504  503 -0.22746251391E+02 -0.35558871572E+02 -0.34791885804E+03  0.35047019429E+03  0.00000000000E+00 0. -1.
       21    1    1    2  505  501  0.15875193197E+02  0.70418515060E+02 -0.34584403500E+03  0.35329716326E+03  0.00000000000E+00 0. -1.
<scales pt_clust_1="13000.00000" pt_clust_2="13000.00000" pt_clust_3="42.21167" pt_clust_4="62.17157"></scales>
<clustering>
<clus scale="   42.212">  2  5  1 -1</clus>
<clus scale="   62.172">  2  6  1 -1</clus>
<clus scale="  362.562">  1  4  2 -1</clus>
<clus scale="  362.562">  1  3  2 -1</clus>
</clustering>
</event>
<event>
 4   0  0.3464723E-02  0.4180260E+03  0.7816531E-02  0.1037711E+00
       21   -1    0    0  501  502  0.00000000000E+00  0.00000000000E+00  0.11539563623E+04  0.11539563623E+04  0.00000000000E+00 0.  1.
       21   -1    0    0  502  503  0.00000000000E+00  0.00000000000E+00 -0.15367165010E+03  0.15367165010E+03  0.00000000000E+00 0.  1.
  1000006    1    1    2  501    0  0.14203321398E+03  0.17908741600E+03  0.57907612488E+03  0.71419527781E+03  0.35000000000E+03 0.  0.
 -1000006    1    1    2    0  503 -0.14203321398E+03 -0.17908741600E+03  0.42120858729E+03  0.59343273457E+03  0.35000000000E+03 0.  0.
<scales pt_clust_1="13000.00000" pt_clust_2="13000.00000"></scales>
<clustering>
<clus scale="  418.026">  1  3  2 -1</clus>
<clus scale="  418.026">  1  3  2 -1</clus>
</clustering>
</event>
<event>
 4   0  0.3464723E-02  0.3641876E+03  0.7816531E-02  0.1056938E+00
       21   -1    0    0  503  502  0.00000000000E+00  0.00000000000E+00  0.17768097180E+03  0.17768097180E+03  0.00000000000E+00 0.  1.
       21   -1    0    0  501  503  0.00000000000E+00  0.00000000000E+00 -0.91905685426E+03  0.91905685426E+03  0.00000000000E+00 0.  1.
  1000006    1    1    2  501    0 -0.57023078117E+02 -0.82951735812E+02 -0.60832371397E+03  0.70900660286E+03  0.35000000000E+03 0.  0.
 -1000006    1    1    2    0  502  0.57023078117E+02  0.82951735812E+02 -0.13305216848E+03  0.38773122321E+03  0.35000000000E+03 0.  0.
<scales pt_clust_1="13000.00000" pt_clust_2="13000.00000"></scales>
<clustering>
<clus scale="  364.188">  2  3  1 -1</clus>
<clus scale="  364.188">  1  3  2 -1</clus>
</clustering>
</event>
<event>
 4   0  0.3464723E-02  0.3540058E+03  0.7816531E-02  0.1060983E+00
       21   -1    0    0  501  502  0.00000000000E+00  0.00000000000E+00  0.21487589392E+03  0.21487589392E+03  0.00000000000E+00 0.  1.
       21   -1    0    0  502  503  0.00000000000E+00  0.00000000000E+00 -0.65332389442E+03  0.65332389442E+03  0.00000000000E+00 0.  1.
  1000006    1    1    2  501    0  0.42989435269E+02 -0.31176871704E+02 -0.77025822759E+02  0.36228865045E+03  0.35000000000E+03 0.  0.
 -1000006    1    1    2    0  503 -0.42989435269E+02  0.31176871704E+02 -0.36142217774E+03  0.50591113788E+03  0.35000000000E+03 0.  0.
<scales pt_clust_1="13000.00000" pt_clust_2="13000.00000"></scales>
<clustering>
<clus scale="  354.006">  1  3  2 -1</clus>
<clus scale="  354.006">  1  3  2 -1</clus>
</clustering>
</event>
<event>
 6   2  0.3464723E-02  0.4228779E+03  0.7816531E-02  0.1036134E+00
       21   -1    0    0  504  502  0.00000000000E+00  0.00000000000E+00  0.96684901570E+03  0.96684901570E+03  0.00000000000E+00 0.  1.
       21   -1    0    0  505  503  0.00000000000E+00  0.00000000000E+00 -0.95887168499E+03  0.95887168499E+03  0.00000000000E+00 0. -1.
  1000006    1    1    2  501    0  0.13213918933E+03 -0.17300716998E+03 -0.64045128051E+03  0.76162332483E+03  0.35000000000E+03 0.  0.
 -1000006    1    1    2    0  502 -0.18897649473E+03  0.14318843568E+03  0.19405583496E+03  0.46515880166E+03  0.35000000000E+03 0.  0.
       21    1    1    2  504  503  0.16831264714E+02  0.28614584013E+02  0.57288716685E+03  0.57384823066E+03  0.00000000000E+00 0.  1.
       21    1    1    2  505  501  0.40006040686E+02  0.12041502828E+01 -0.11851439060E+03  0.12509034355E+03  0.00000000000E+00 0. -1.
<scales pt_clust_1="13000.00000" pt_clust_2="13000.00000" pt_clust_3="33.19768" pt_clust_4="40.17262"></scales>
<clustering>
<clus scale="   33.198">  1  5  2 -1</clus>
<clus scale="   40.173">  2  6  1 -1</clus>
<clus scale="  422.878">  2  3  1 -1</clus>
<clus scale="  422.878">  1  3  2 -1</clus>
</clustering>
</event>
<event>
 5   1  0.3464723E-02  0.4051234E+03  0.7816531E-02  0.1042020E+00
       21   -1    0    0  504  502  0.00000000000E+00  0.00000000000E+00  0.30587718365E+03  0.30587718365E+03  0.00000000000E+00 0. -1.
       21   -1    0    0  501  503  0.00000000000E+00  0.00000000000E+00 -0.78744760014E+03  0.78744760014E+03  0.00000000000E+00 0. -1.
  1000006    1    1    2  501    0  0.19478760946E+03  0.21296409758E+03 -0.23408681010E+03  0.51048266799E+03  0.35000000000E+03 0.  0.
 -1000006    1    1    2    0  502 -0.86247275893E+02 -0.10978943011E+03 -0.15975876180E+03  0.40928617560E+03  0.35000000000E+03 0.  0.
       21    1    1    2  504  503 -0.10854033357E+03 -0.10317466747E+03 -0.87724844592E+02  0.17355594020E+03  0.00000000000E+00 0. -1.
<scales pt_clust_1="13000.00000" pt_clust_2="13000.00000" pt_clust_3="149.75318"></scales>
<clustering>
<clus scale="  149.753">  2  5  1 -1</clus>
<clus scale="  405.123">  2  3  1 -1</clus>
<clus scale="  405.123">  1  3  2 -1</clus>
</clustering>
</event>
<event>
 5   1  0.3464723E-02  0.4507790E+03  0.7816531E-02  0.1027490E+00
       21   -1    0    0  504  502  0.00000000000E+00  0.00000000000E+00  0.20060855468E+04  0.20060855468E+04  0.00000000000E+00 0. -1.
       21   -1    0    0  501  503  0.00000000000E+00  0.00000000000E+00 -0.16838702527E+03  0.16838702527E+03  0.00000000000E+00 0. -1.
  1000006    1    1    2  501    0  0.12393492705E+03  0.24821508135E+03  0.25859423534E+03  0.51608291127E+03  0.35000000000E+03 0.  0.
 -1000006    1    1    2    0  502 -0.13669866416E+03 -0.27637352936E+03  0.13751173155E+04  0.14520731675E+04  0.35000000000E+03 0.  0.
       21    1    1    2  504  503  0.12763737116E+02  0.28158448014E+02  0.20398697069E+03  0.20631649326E+03  0.00000000000E+00 0.  1.
<scales pt_clust_1="13000.00000" pt_clust_2="13000.00000" pt_clust_3="30.91620"></scales>
<clustering>
<clus scale="   30.916">  1  5  2 -1</clus>
<clus scale="  450.779">  2  3  1 -1</clus>
<clus scale="  450.779">  1  3  2 -1</clus>
</clustering>
</event>
<event>
 6   2  0.3464723E-02  0.3635716E+03  0.7816531E-02  0.1057179E+00
        2   -1    0    0  503    0  0.00000000000E+00  0.00000000000E+00  0.90029802436E+03  0.90029802436E+03  0.00000000000E+00 0.  1.
       21   -1    0    0  501  503  0.00000000000E+00  0.00000000000E+00 -0.25423080818E+03  0.25423080818E+03  0.00000000000E+00 0.  1.
  1000006    1    1    2  501    0 -0.20107224912E+02  0.77665594280E+02  0.58688713934E+02  0.36384146296E+03  0.35000000000E+03 0.  0.
 -1000006    1    1    2    0  504 -0.16755666539E+02 -0.13409128543E+03  0.27467217226E+03  0.46497959891E+03  0.35000000000E+03 0.  0.
       21    1    1    2  504  502  0.91237459614E+01  0.38351282211E+02  0.66662917107E+02  0.77446808228E+02  0.00000000000E+00 0.  1.
        2    1    1    2  502    0  0.27739145489E+02  0.18074408941E+02  0.24604341288E+03  0.24826096244E+03  0.00000000000E+00 0.  1.
<scales pt_clust_1="13000.00000" pt_clust_2="13000.00000" pt_clust_3="42.14483" pt_clust_4="33.10807"></scales>
<clustering>
<clus scale="   33.108">  1  6  2 -1</clus>
<clus scale="   42.145">  1  5  2 -1</clus>
<clus scale="  363.572">  2  3  1 -1</clus>
<clus scale="  363.572">  2  3  1 -1</clus>
</clustering>
</event>
<event>
 6   2  0.3464723E-02  0.3563494E+03  0.7816531E-02  0.1060039E+00
       21   -1    0    0  505  502  0.00000000000E+00  0.00000000000E+00  0.10332311146E+04  0.10332311146E+04  0.00000000000E+00 0.  1.
       21   -1    0    0  502  503  0.00000000000E+00  0.00000000000E+00 -0.24344395787E+03  0.24344395787E+03  0.00000000000E+00 0.  1.
  1000006    1    1    2  501    0  0.13238974181E+03 -0.86534453850E+02  0.28977869654E+03  0.48113090569E+03  0.35000000000E+03 0.  0.
 -1000006    1    1    2    0  504  0.77527914809E+01  0.53355000015E+01  0.16815766647E+03  0.38841417859E+03  0.35000000000E+03 0.  0.
       21    1    1    2  504  503  0.10669011801E+02  0.35634117451E+02 -0.27463201380E+01  0.37298262876E+02  0.00000000000E+00 0. -1.
       21    1    1    2  505  501 -0.15081154509E+03  0.45564836398E+02  0.33459711382E+03  0.36983172528E+03  0.00000000000E+00 0.  1.
<scales pt_clust_1="13000.00000" pt_clust_2="13000.00000" pt_clust_3="37.19702" pt_clust_4="157.57916"></scales>
<clustering>
<clus scale="   37.197">  2  5  1 -1</clus>
<clus scale="  157.579">  1  6  2 -1</clus>
<clus scale="  356.349">  2  4  1 -1</clus>
<clus scale="  356.349">  1  3  2 -1</clus>
</clustering>
</event>
<event>
 6   2  0.3464723E-02  0.3712015E+03  0.7816531E-02  0.1054234E+00
       21   -1    0    0  501  502  0.00000000000E+00  0.00000000000E+00  0.12434928860E+04  0.12434928860E+04  0.00000000000E+00 0. -1.
       21   -1    0    0  505  503  0.00000000000E+00  0.00000000000E+00 -0.38653967503E+03  0.38653967503E+03  0.00000000000E+00 0. -1.
  1000006    1    1    2  501    0  0.13224670944E+03  0.45181096050E+01  0.46070856758E+01  0.37420693568E+03  0.35000000000E+03 0.  0.
 -1000006    1    1    2    0  503 -0.11329671368E+03 -0.20562744474E+02  0.22898166099E+02  0.36916567798E+03  0.35000000000E+03 0.  0.
       21    1    1    2  504  502 -0.50867135326E+02  0.29739034694E+01  0.84660596386E+03  0.84813794138E+03  0.00000000000E+00 0. -1.
       21    1    1    2  505  504  0.31917139561E+02  0.13070731400E+02 -0.17158004703E+02  0.38522005951E+02  0.00000000000E+00 0. -1.
<scales pt_clust_1="13000.00000" pt_clust_2="13000.00000" pt_clust_3="50.88759" pt_clust_4="34.48982"></scales>
<clustering>
<clus scale="   34.490">  2  6  1 -1</clus>
<clus scale="   50.888">  1  5  2 -1</clus>
<clus scale="  371.201">  1  3  2 -1</clus>
<clus scale="  371.201">  1  3  2 -1</clus>
</clustering>
</event>
<event>
 5   1  0.3464723E-02  0.7531312E+03  0.7816531E-02  0.9630451E-01
       21   -1    0    0  503  502  0.00000000000E+00  0.00000000000E+00  0.55107133862E+03  0.55107133862E+03  0.00000000000E+00 0.  1.
       21   -1    0    0  501  503  0.00000000000E+00  0.00000000000E+00 -0.14203014907E+04  0.14203014907E+04  0.00000000000E+00 0. -1.
  1000006    1    1    2  501    0 -0.35345618054E+03 -0.60675186787E+03 -0.76764014603E+03  0.10976568200E+04  0.35000000000E+03 0.  0.
 -1000006    1    1    2    0  504  0.36028339695E+03  0.49379278593E+03 -0.19064393565E+03  0.72971265012E+03  0.35000000000E+03 0.  0.
       21    1    1    2  504  502 -0.68272164128E+01  0.11295908195E+03  0.89053929599E+02  0.14400335918E+03  0.00000000000E+00 0.  1.
<scales pt_clust_1="13000.00000" pt_clust_2="13000.00000" pt_clust_3="113.16521"></scales>
<clustering>
<clus scale="  113.165">  1  5  2 -1</clus>
<clus scale="  753.131">  1  4  2 -1</clus>
<clus scale="  753.131">  1  3  2 -1</clus>
</clustering>
</event>
<event>
 6   2  0.3464723E-02  0.3856844E+03  0.7816531E-02  0.1048853E+00
       21   -1    0    0  501  502  0.00000000000E+00  0.00000000000E+00  0.21777131586E+03  0.21777131586E+03  0.00000000000E+00 0. -1.
       21   -1    0    0  504  503  0.00000000000E+00  0.00000000000E+00 -0.16088621756E+04  0.16088621756E+04  0.00000000000E+00 0. -1.
  1000006    1    1    2  501    0 -0.16727739096E+03  0.35145262513E+01 -0.24080536993E+03  0.45659752913E+03  0.35000000000E+03 0.  0.
 -1000006    1    1    2    0  505  0.14016166191E+03 -0.10294001273E+03 -0.28703626242E+03  0.48490386020E+03  0.35000000000E+03 0.  0.
       21    1    1    2  504  502  0.25396894063E+02  0.43050984584E+02 -0.52740097043E+02  0.72662970885E+02  0.00000000000E+00 0. -1.
       21    1    1    2  505  503  0.17188349872E+01  0.56374501894E+02 -0.81050913032E+03  0.81246913122E+03  0.00000000000E+00 0. -1.
<scales pt_clust_1="13000.00000" pt_clust_2="13000.00000" pt_clust_3="49.98389" pt_clust_4="56.60739"></scales>
<clustering>
<clus scale="   49.984">  1  5  2 -1</clus>
<clus scale="   56.607">  2  6  1 -1</clus>
<clus scale="  385.684">  1  3  2 -1</clus>
<clus scale="  385.684">  1  3  2 -1</clus>
</clustering>
</event>
<event>
 6   2  0.3464723E-02  0.3886010E+03  0.7816531E-02  0.1047800E+00
       -1   -1    0    0    0  501  0.00000000000E+00  0.00000000000E+00  0.66569178399E+03  0.66569178399E+03  0.00000000000E+00 0. -1.
       21   -1    0    0  504  503  0.00000000000E+00  0.00000000000E+00 -0.46854771199E+03  0.46854771199E+03  0.00000000000E+00 0.  1.
  1000006    1    1    2  502    0  0.57409969306E+00  0.18678672105E+03  0.31740022452E+03  0.50806742788E+03  0.35000000000E+03 0.  0.
 -1000006    1    1    2    0  503  0.33657671784E+02 -0.15278402488E+03 -0.21838781501E+03  0.44121313996E+03  0.35000000000E+03 0.  0.
       21    1    1    2  504  501 -0.66713674556E+02 -0.14016812640E+02 -0.11274222622E+02  0.69096262599E+02  0.00000000000E+00 0. -1.
       -1    1    1    2    0  502  0.32481903079E+02 -0.19985883527E+02  0.10940588511E+03  0.11586266554E+03  0.00000000000E+00 0. -1.
<scales pt_clust_1="13000.00000" pt_clust_2="13000.00000" pt_clust_3="66.73747" pt_clust_4="38.13803"></scales>
<clustering>
<clus scale="   38.138">  1  6  2 -1</clus>
<clus scale="   66.737">  2  5  1 -1</clus>
<clus scale="  388.601">  2  4  1 -1</clus>
<clus scale="  388.601">  2  3  1 -1</clus>
</clustering>
</event>
<event>
 5   1  0.3464723E-02  0.3767615E+03  0.7816531E-02  0.1052137E+00
       21   -1    0    0  501  502  0.00000000000E+00  0.00000000000E+00  0.63521091375E+03  0.63521091375E+03  0.00000000000E+00 0.  1.
       21   -1    0    0  502  503  0.00000000000E+00  0.00000000000E+00 -0.35930589124E+03  0.35930589124E+03  0.00000000000E+00 0.  1.
  1000006    1    1    2  501    0  0.88777666251E+02  0.10889234685E+03  0.40025598929E+03  0.54994897417E+03  0.35000000000E+03 0.  0.
 -1000006    1    1    2    0  504 -0.11763097779E+03 -0.77857956489E+02 -0.85159320248E+02  0.38684753864E+03  0.35000000000E+03 0.  0.
       21    1    1    2  504  503  0.28853311543E+02 -0.31034390358E+02 -0.39191646530E+02  0.57720292182E+02  0.00000000000E+00 0.  1.
<scales pt_clust_1="13000.00000" pt_clust_2="13000.00000" pt_clust_3="42.37507"></scales>
<clustering>
<clus scale="   42.375">  2  5  1 -1</clus>
<clus scale="  376.762">  1  3  2 -1</clus>
<clus scale="  376.762">  1  3  2 -1</clus>
</clustering>
</event>
<event>
 5   1  0.3464723E-02  0.3522137E+03  0.7816531E-02  0.1061710E+00
       21   -1    0    0  501  502  0.00000000000E+00  0.00000000000E+00  0.15324163728E+04  0.15324163728E+04  0.00000000000E+00 0. -1.
       21   -1    0    0  504  503  0.00000000000E+00  0.00000000000E+00 -0.39294337105E+03  0.39294337105E+03  0.00000000000E+00 0. -1.
  1000006    1    1    2  501    0 -0.32022468247E+02 -0.76673253260E+02  0.10757489019E+03  0.37546848501E+03  0.35000000000E+03 0.  0.
 -1000006    1    1    2    0  503  0.26534353566E+02  0.30251264476E+01 -0.13836238226E+03  0.37730275924E+03  0.35000000000E+03 0.  0.
       21    1    1    2  504  502  0.54881146804E+01  0.73648126813E+02  0.11702604938E+04  0.11725884996E+04  0.00000000000E+00 0. -1.
<scales pt_clust_1="13000.00000" pt_clust_2="13000.00000" pt_clust_3="73.85233"></scales>
<clustering>
<clus scale="   73.852">  1  5  2 -1</clus>
<clus scale="  352.214">  2  4  1 -1</clus>
<clus scale="  352.214">  1  3  2 -1</clus>
</clustering>
</event>
<event>
 5   1  0.3464723E-02  0.3625152E+03  0.7816531E-02  0.1057592E+00
        1   -1    0    0  503    0  0.00000000000E+00  0.00000000000E+00  0.18965368227E+04  0.18965368227E+04  0.00000000000E+00 0. -1.
       21   -1    0    0  501  503  0.00000000000E+00  0.00000000000E+00 -0.86903334160E+02  0.86903334160E+02  0.00000000000E+00 0. -1.
  1000006    1    1    2  501    0 -0.65866986870E+02 -0.59228872555E+02  0.62793522459E+03  0.72432669810E+03  0.35000000000E+03 0.  0.
 -1000006    1    1    2    0  502  0.93696035382E+02  0.45509006974E+02  0.83914758403E+03  0.91516046929E+03  0.35000000000E+03 0.  0.
        1    1    1    2  502    0 -0.27829048513E+02  0.13719865581E+02  0.34255067991E+03  0.34395298946E+03  0.00000000000E+00 0. -1.
<scales pt_clust_1="13000.00000" pt_clust_2="13000.00000" pt_clust_3="31.02726"></scales>
<clustering>
<clus scale="   31.027">  1  5  2 -1</clus>
<clus scale="  362.515">  1  4  2 -1</clus>
<clus scale="  362.515">  2  3  1 -1</clus>
</clustering>
</event>
<event>
 5   1  0.3464723E-02  0.4003033E+03  0.7816531E-02  0.1043675E+00
       21   -1    0    0  504  502  0.00000000000E+00  0.00000000000E+00  0.72204095752E+03  0.72204095752E+03  0.00000000000E+00 0. -1.
       21   -1    0    0  501  503  0.00000000000E+00  0.00000000000E+00 -0.35797272469E+03  0.35797272469E+03  0.00000000000E+00 0. -1.
  1000006    1    1    2  501    0 -0.92717896630E+02  0.17401519303E+03 -0.11846415135E+03  0.41882174122E+03  0.35000000000E+03 0.  0.
 -1000006    1    1    2    0  502  0.12787989208E+03 -0.14000851198E+03  0.39421764160E+03  0.56023494997E+03  0.35000000000E+03 0.  0.
       21    1    1    2  504  503 -0.35161995448E+02 -0.34006681051E+02  0.88314742576E+02  0.10095699102E+03  0.00000000000E+00 0.  1.
<scales pt_clust_1="13000.00000" pt_clust_2="13000.00000" pt_clust_3="48.91646"></scales>
<clustering>
<clus scale="   48.916">  1  5  2 -1</clus>
<clus scale="  400.303">  2  3  1 -1</clus>
<clus scale="  400.303">  1  3  2 -1</clus>
</clustering>
</event>
<event>
 5   1  0.3464723E-02  0.5897602E+03  0.7816531E-02  0.9926881E-01
       21   -1    0    0  501  502  0.00000000000E+00  0.00000000000E+00  0.51219519939E+03  0.51219519939E+03  0.00000000000E+00 0. -1.
       21   -1    0    0  504  503  0.00000000000E+00  0.00000000000E+00 -0.80609420711E+03  0.80609420711E+03  0.00000000000E+00 0.  1.
  1000006    1    1    2  501    0 -0.24887089936E+03  0.39940162126E+03 -0.10924388231E+03  0.59656735197E+03  0.35000000000E+03 0.  0.
 -1000006    1    1    2    0  503  0.27729098768E+03 -0.38976547345E+03 -0.25500403790E+03  0.64523985888E+03  0.35000000000E+03 0.  0.
       21    1    1    2  504  502 -0.28420088322E+02 -0.96361478048E+01  0.70348912487E+02  0.76482195659E+02  0.00000000000E+00 0. -1.
<scales pt_clust_1="13000.00000" pt_clust_2="13000.00000" pt_clust_3="30.00928"></scales>
<clustering>
<clus scale="   30.009">  1  5  2 -1</clus>
<clus scale="  589.760">  1  3  2 -1</clus>
<clus scale="  589.760">  1  3  2 -1</clus>
</clustering>
</event>
<event>
 6   2  0.3464723E-02  0.4536860E+03  0.7816531E-02  0.1026629E+00
       21   -1    0    0  504  502  0.00000000000E+00  0.00000000000E+00  0.88810814037E+03  0.88810814037E+03  0.00000000000E+00 0. -1.
       21   -1    0    0  501  503  0.00000000000E+00  0.00000000000E+00 -0.16022525889E+04  0.16022525889E+04  0.00000000000E+00 0. -1.
  1000006    1    1    2  501    0 -0.75295958184E+02 -0.20080847872E+03 -0.11036188761E+04  0.11774838216E+04  0.35000000000E+03 0.  0.
 -1000006    1    1    2    0  505  0.25021392204E+02  0.19751690859E+03  0.22424465212E+02  0.40328879960E+03  0.35000000000E+03 0.  0.
       21    1    1    2  504  503  0.91926869435E+02 -0.15371591915E+03 -0.22961428071E+03  0.29120757379E+03  0.00000000000E+00 0.  1.
       21    1    1    2  505  502 -0.41652303455E+02  0.15700748928E+03  0.59666424313E+03  0.61838053422E+03  0.00000000000E+00 0. -1.
<scales pt_clust_1="13000.00000" pt_clust_2="13000.00000" pt_clust_3="162.04488" pt_clust_4="162.43850"></scales>
<clustering>
<clus scale="  162.438">  1  6  2 -1</clus>
<clus scale="  162.045">  2  5  1 -1</clus>
<clus scale="  453.686">  2  3  1 -1</clus>
<clus scale="  453.686">  1  3  2 -1</clus>
</clustering>
</event>
<event>
 6   2  0.3464723E-02  0.4112524E+03  0.7816531E-02  0.1039952E+00
       21   -1    0    0  505  502  0.00000000000E+00  0.00000000000E+00  0.10397136135E+04  0.10397136135E+04  0.00000000000E+00 0.  1.
       21   -1    0    0  502  503  0.00000000000E+00  0.00000000000E+00 -0.22942978650E+03  0.22942978650E+03  0.00000000000E+00 0.  1.
  1000006    1    1    2  501    0  0.41740595418E+02  0.19753178901E+03  0.38191156820E+03  0.55598339085E+03  0.35000000000E+03 0.  0.
 -1000006    1    1    2    0  504 -0.73523876920E+02 -0.21638116437E+03  0.32797497752E+03  0.53131361233E+03  0.35000000000E+03 0.  0.
       21    1    1    2  504  503  0.20820781284E+02 -0.22366280557E+02 -0.31103492420E+02  0.43602553594E+02  0.00000000000E+00 0.  1.
       21    1    1    2  505  501  0.10962500217E+02  0.41215655921E+02  0.13150077375E+03  0.13824384326E+03  0.00000000000E+00 0.  1.
<scales pt_clust_1="13000.00000" pt_clust_2="13000.00000" pt_clust_3="30.55741" pt_clust_4="42.36561"></scales>
<clustering>
<clus scale="   30.557">  2  5  1 -1</clus>
<clus scale="   42.366">  1  6  2 -1</clus>
<clus scale="  411.252">  1  3  2 -1</clus>
<clus scale="  411.252">  1  3  2 -1</clus>
</clustering>
</event>
<event>
 6   2  0.3464723E-02  0.3993097E+03  0.7816531E-02  0.1044019E+00
       21   -1    0    0  501  502  0.00000000000E+00  0.00000000000E+00  0.50232454274E+03  0.50232454274E+03  0.00000000000E+00 0. -1.
       21   -1    0    0  504  503  0.00000000000E+00  0.00000000000E+00 -0.93324836491E+03  0.93324836491E+03  0.00000000000E+00 0.  1.
  1000006    1    1    2  501    0  0.19510875171E+03  0.10008571659E+03  0.89790980216E+02  0.42266653024E+03  0.35000000000E+03 0.  0.
 -1000006    1    1    2    0  505 -0.17035589677E+03 -0.46290787374E+02 -0.14379810917E+03  0.41754265023E+03  0.35000000000E+03 0.  0.
       21    1    1    2  504  502 -0.32177145024E+02 -0.18698465824E+02  0.10536780004E+03  0.11174692198E+03  0.00000000000E+00 0.  1.
       21    1    1    2  505  503  0.74242900797E+01 -0.35096463388E+02 -0.48228449327E+03  0.48361680520E+03  0.00000000000E+00 0.  1.
<scales pt_clust_1="13000.00000" pt_clust_2="13000.00000" pt_clust_3="37.29582" pt_clust_4="35.87314"></scales>
<clustering>
<clus scale="   35.873">  2  6  1 -1</clus>
<clus scale="   37.296">  1  5  2 -1</clus>
<clus scale="  399.310">  1  3  2 -1</clus>
<clus scale="  399.310">  1  3  2 -1</clus>
</clustering>
</event>
<event>
 4   0  0.3464723E-02  0.4658693E+03  0.7816531E-02  0.1023093E+00
       21   -1    0    0  503  502  0.00000000000E+00  0.00000000000E+00  0.10025329044E+04  0.10025329044E+04  0.00000000000E+00 0.  1.
       21   -1    0    0  501  503  0.00000000000E+00  0.00000000000E+00 -0.24914749524E+03  0.24914749524E+03  0.00000000000E+00 0.  1.
  1000006    1    1    2  501    0  0.30745506014E+03 -0.23729326567E+01  0.15009586679E+03  0.48945174843E+03  0.35000000000E+03 0.  0.
 -1000006    1    1    2    0  502 -0.30745506014E+03  0.23729326567E+01  0.60328954238E+03  0.76222865123E+03  0.35000000000E+03 0.  0.
<scales pt_clust_1="13000.00000" pt_clust_2="13000.00000"></scales>
<clustering>
<clus scale="  465.869">  2  3  1 -1</clus>
<clus scale="  465.869">  1  3  2 -1</clus>
</clustering>
</event>
<event>
 5   1  0.3464723E-02  0.3880226E+03  0.7816531E-02  0.1048008E+00
       21   -1    0    0  504  502  0.00000000000E+00  0.00000000000E+00  0.33655569895E+03  0.33655569895E+03  0.00000000000E+00 0. -1.
       21   -1    0    0  502  503  0.00000000000E+00  0.00000000000E+00 -0.54267615062E+03  0.54267615062E+03  0.00000000000E+00 0. -1.
  1000006    1    1    2  501    0 -0.24664896391E+02 -0.18610408912E+03  0.16953255602E+01  0.39717246031E+03  0.35000000000E+03 0.  0.
 -1000006    1    1    2    0  503  0.54076640001E+02  0.14771087075E+03 -0.20111865400E+03  0.43323376752E+03  0.35000000000E+03 0.  0.
       21    1    1    2  504  501 -0.29411743610E+02  0.38393218370E+02 -0.66971232318E+01  0.48825621743E+02  0.00000000000E+00 0.  1.
<scales pt_clust_1="13000.00000" pt_clust_2="13000.00000" pt_clust_3="48.36414"></scales>
<clustering>
<clus scale="   48.364">  1  5  2 -1</clus>
<clus scale="  388.023">  1  3  2 -1</clus>
<clus scale="  388.023">  1  3  2 -1</clus>
</clustering>
</event>
<event>
 5   1  0.3464723E-02  0.3837590E+03  0.7816531E-02  0.1049553E+00
       21   -1    0    0  504  502  0.00000000000E+00  0.00000000000E+00  0.11380809420E+04  0.11380809420E+04  0.00000000000E+00 0. -1.
       21   -1    0    0  501  503  0.00000000000E+00  0.00000000000E+00 -0.54628020374E+03  0.54628020374E+03  0.00000000000E+00 0. -1.
  1000006    1    1    2  501    0 -0.10364147221E+03  0.14961998903E+03  0.50627394803E+03  0.64182630543E+03  0.35000000000E+03 0.  0.
 -1000006    1    1    2    0  502  0.13867494873E+03 -0.52528993392E+02  0.49280995631E+03  0.62237584271E+03  0.35000000000E+03 0.  0.
       21    1    1    2  504  503 -0.35033476518E+02 -0.97090995639E+02 -0.40728316607E+03  0.42015899762E+03  0.00000000000E+00 0. -1.
<scales pt_clust_1="13000.00000" pt_clust_2="13000.00000" pt_clust_3="103.21824"></scales>
<clustering>
<clus scale="  103.218">  2  5  1 -1</clus>
<clus scale="  383.759">  1  4  2 -1</clus>
<clus scale="  383.759">  1  3  2 -1</clus>
</clustering>
</event>
<event>
 6   2  0.3464723E-02  0.3942661E+03  0.7816531E-02  0.1045783E+00
       21   -1    0    0  504  502  0.00000000000E+00  0.00000000000E+00  0.38343078762E+03  0.38343078762E+03  0.00000000000E+00 0.  1.
       21   -1    0    0  501  503  0.00000000000E+00  0.00000000000E+00 -0.95226861583E+03  0.95226861583E+03  0.00000000000E+00 0.  1.
  1000006    1    1    2  501    0  0.10611298934E+03 -0.25415529252E+03 -0.13917190277E+03  0.46660872017E+03  0.35000000000E+03 0.  0.
 -1000006    1    1    2    0  502 -0.11248688314E+03  0.74365943462E+02 -0.11094407045E+02  0.37524215954E+03  0.35000000000E+03 0.  0.
       21    1    1    2  504  505 -0.26590330799E+02  0.16643368878E+03 -0.15852663222E+03  0.23138260863E+03  0.00000000000E+00 0.  1.
       21    1    1    2  505  503  0.32964224595E+02  0.13355660274E+02 -0.26004488618E+03  0.26246591511E+03  0.00000000000E+00 0.  1.
<scales pt_clust_1="13000.00000" pt_clust_2="13000.00000" pt_clust_3="171.07767" pt_clust_4="35.56703"></scales>
<clustering>
<clus scale="   35.567">  2  6  1 -1</clus>
<clus scale="  171.078">  2  5  1 -1</clus>
<clus scale="  394.266">  1  4  2 -1</clus>
<clus scale="  394.266">  1  3  2 -1</clus>
</clustering>
</event>
<event>
 4   0  0.3464723E-02  0.4205855E+03  0.7816531E-02  0.1036876E+00
       21   -1    0    0  503  502  0.00000000000E+00  0.00000000000E+00  0.46488017598E+03  0.46488017598E+03  0.00000000000E+00 0.  1.
       21   -1    0    0  501  503  0.00000000000E+00  0.00000000000E+00 -0.39472413766E+03  0.39472413766E+03  0.00000000000E+00 0.  1.
  1000006    1    1    2  501    0  0.23128513820E+03  0.29988957771E+02 -0.46479196027E+02  0.42314591857E+03  0.35000000000E+03 0.  0.
 -1000006    1    1    2    0  502 -0.23128513820E+03 -0.29988957771E+02  0.11663523434E+03  0.43645839507E+03  0.35000000000E+03 0.  0.
<scales pt_clust_1="13000.00000" pt_clust_2="13000.00000"></scales>
<clustering>
<clus scale="  420.585">  2  3  1 -1</clus>
<clus scale="  420.585">  1  3  2 -1</clus>
</clustering>
</event>
<event>
 6   2  0.3464723E-02  0.4143973E+03  0.7816531E-02  0.1038905E+00
        2   -1    0    0  504    0  0.00000000000E+00  0.00000000000E+00  0.27125898130E+04  0.27125898130E+04  0.00000000000E+00 0.  1.
       21   -1    0    0  502  503  0.00000000000E+00  0.00000000000E+00 -0.14687477797E+03  0.14687477797E+03  0.00000000000E+00 0. -1.
  1000006    1    1    2  501    0  0.20869291984E+03 -0.81602581658E+02  0.95847916032E+03  0.10446980506E+04  0.35000000000E+03 0.  0.
 -1000006    1    1    2    0  503 -0.22282386622E+03  0.19292856799E+02  0.32365102331E+03  0.52656687569E+03  0.35000000000E+03 0.  0.
       21    1    1    2  504  501  0.24222085750E+02  0.17728086975E+02  0.11931149687E+03  0.12302937776E+03  0.00000000000E+00 0.  1.
        2    1    1    2  502    0 -0.10091139367E+02  0.44581637884E+02  0.11642733546E+04  0.11651702870E+04  0.00000000000E+00 0.  1.
<scales pt_clust_1="13000.00000" pt_clust_2="13000.00000" pt_clust_3="30.01657" pt_clust_4="52.55561"></scales>
<clustering>
<clus scale="   30.017">  1  5  2 -1</clus>
<clus scale="   52.556">  1  6  2 -1</clus>
<clus scale="  414.397">  1  3  2 -1</clus>
<clus scale="  414.397">  2  3  1 -1</clus>
</clustering>
</event>
<event>
 5   1  0.3464723E-02  0.3681922E+03  0.7816531E-02  0.1055386E+00
       21   -1    0    0  503  502  0.00000000000E+00  0.00000000000E+00  0.33252766713E+03  0.33252766713E+03  0.00000000000E+00 0. -1.
       21   -1    0    0  504  503  0.00000000000E+00  0.00000000000E+00 -0.47638359506E+03  0.47638359506E+03  0.00000000000E+00 0. -1.
  1000006    1    1    2  501    0  0.36928830378E+01 -0.92611624345E+02 -0.99245708557E+02  0.37542011270E+03  0.35000000000E+03 0.  0.
 -1000006    1    1    2    0  502 -0.43702691532E+02  0.12712683955E+03 -0.20717319547E+02  0.37550015434E+03  0.35000000000E+03 0.  0.
       21    1    1    2  504  501  0.40009808494E+02 -0.34515215207E+02 -0.23892899828E+02  0.57990995153E+02  0.00000000000E+00 0. -1.
<scales pt_clust_1="13000.00000" pt_clust_2="13000.00000" pt_clust_3="52.84018"></scales>
<clustering>
<clus scale="   52.840">  2  5  1 -1</clus>
<clus scale="  368.192">  1  4  2 -1</clus>
<clus scale="  368.192">  1  3  2 -1</clus>
</clustering>
</event>
<event>
 6   2  0.3464723E-02  0.3769819E+03  0.7816531E-02  0.1052055E+00
       21   -1    0    0  504  502  0.00000000000E+00  0.00000000000E+00  0.16465609737E+03  0.16465609737E+03  0.00000000000E+00 0.  1.
       21   -1    0    0  505  503  0.00000000000E+00  0.00000000000E+00 -0.17547299716E+04  0.17547299716E+04  0.00000000000E+00 0.  1.
  1000006    1    1    2  501    0  0.81966234585E+02 -0.11835437681E+03 -0.56921759171E+03  0.68354582058E+03  0.35000000000E+03 0.  0.
 -1000006    1    1    2    0  503 -0.88349965206E+02  0.10566473320E+03 -0.91177752429E+03  0.98631080598E+03  0.35000000000E+03 0.  0.
       21    1    1    2  504  501  0.99070379167E+02 -0.26402443570E+02 -0.19100449329E+01  0.10254597665E+03  0.00000000000E+00 0. -1.
       21    1    1    2  505  502 -0.92686648545E+02  0.39092087179E+02 -0.10716871335E+03  0.14698346580E+03  0.00000000000E+00 0. -1.
<scales pt_clust_1="13000.00000" pt_clust_2="13000.00000" pt_clust_3="68.06725" pt_clust_4="100.59327"></scales>
<clustering>
<clus scale="  100.593">  1  6  2 -1</clus>
<clus scale="   68.067">  1  5  2 -1</clus>
<clus scale="  376.982">  1  3  2 -1</clus>
<clus scale="  376.982">  1  3  2 -1</clus>
</clustering>
</event>
<event>
 5   1  0.3464723E-02  0.4335568E+03  0.7816531E-02  0.1032742E+00
       21   -1    0    0  501  503  0.00000000000E+00  0.00000000000E+00  0.30130665234E+03  0.30130665234E+03  0.00000000000E+00 0.  1.
        1   -1    0    0  503    0  0.00000000000E+00  0.00000000000E+00 -0.79998624063E+03  0.79998624063E+03  0.00000000000E+00 0.  1.
  1000006    1    1    2  501    0 -0.15812185517E+03 -0.20249865015E+03 -0.15000623768E+03  0.45935835220E+03  0.35000000000E+03 0.  0.
 -1000006    1    1    2    0  502  0.12881413097E+03  0.22120170491E+03 -0.17962644517E+03  0.46934948002E+03  0.35000000000E+03 0.  0.
        1    1    1    2  502    0  0.29307724206E+02 -0.18703054766E+02 -0.16904690543E+03  0.17258506074E+03  0.00000000000E+00 0.  1.
<scales pt_clust_1="13000.00000" pt_clust_2="13000.00000" pt_clust_3="34.76704"></scales>
<clustering>
<clus scale="   34.767">  2  5  1 -1</clus>
<clus scale="  433.557">  1  3  2 -1</clus>
<clus scale="  433.557">  1  3  2 -1</clus>
</clustering>
</event>
<event>
 6   2  0.3464723E-02  0.3971858E+03  0.7816531E-02  0.1044758E+00
       21   -1    0    0  504  502  0.00000000000E+00  0.00000000000E+00  0.16800930226E+04  0.16800930226E+04  0.00000000000E+00 0. -1.
       21   -1    0    0  501  503  0.00000000000E+00  0.00000000000E+00 -0.14042221562E+03  0.14042221562E+03  0.00000000000E+00 0. -1.
  1000006    1    1    2  501    0  0.13468259832E+03  0.20223844532E+03  0.57338031795E+03  0.71435619971E+03  0.35000000000E+03 0.  0.
 -1000006    1    1    2    0  502 -0.59438973693E+02 -0.12408003867E+03  0.71460829268E+03  0.80752328731E+03  0.35000000000E+03 0.  0.
       21    1    1    2  504  505 -0.67062579358E+01 -0.54084720470E+02  0.20538891393E+03  0.21249643961E+03  0.00000000000E+00 0.  1.
       21    1    1    2  505  503 -0.68537366688E+02 -0.24073686175E+02  0.46293282389E+02  0.86139311542E+02  0.00000000000E+00 0. -1.
<scales pt_clust_1="13000.00000" pt_clust_2="13000.00000" pt_clust_3="54.49891" pt_clust_4="73.76661"></scales>
<clustering>
<clus scale="   54.499">  1  5  2 -1</clus>
<clus scale="   73.767">  2  6  1 -1</clus>
<clus scale="  397.186">  2  3  1 -1</clus>
<clus scale="  397.186">  1  3  2 -1</clus>
</clustering>
</event>
<event>
 5   1  0.3464723E-02  0.6024929E+03  0.7816531E-02  0.9900248E-01
       21   -1    0    0  501  502  0.00000000000E+00  0.00000000000E+00  0.23062114557E+04  0.23062114557E+04  0.00000000000E+00 0. -1.
       21   -1    0    0  504  503  0.00000000000E+00  0.00000000000E+00 -0.25480695695E+03  0.25480695695E+03  0.00000000000E+00 0. -1.
  1000006    1    1    2  501    0  0.36120958586E+03  0.31574388103E+03  0.13422501139E+04  0.14677540433E+04  0.35000000000E+03 0.  0.
 -1000006    1    1    2    0  503 -0.38923517230E+03 -0.30454141629E+03  0.28722946677E+03  0.67026133722E+03  0.35000000000E+03 0.  0.
       21    1    1    2  504  502  0.28025586436E+02 -0.11202464745E+02  0.42192491802E+03  0.42300303209E+03  0.00000000000E+00 0.  1.
<scales pt_clust_1="13000.00000" pt_clust_2="13000.00000" pt_clust_3="30.18160"></scales>
<clustering>
<clus scale="   30.182">  1  5  2 -1</clus>
<clus scale="  602.493">  1  3  2 -1</clus>
<clus scale="  602.493">  1  3  2 -1</clus>
</clustering>
</event>
<event>
 4   0  0.3464723E-02  0.3546561E+03  0.7816531E-02  0.1060720E+00
       21   -1    0    0  501  502  0.00000000000E+00  0.00000000000E+00  0.13979853232E+03  0.13979853232E+03  0.00000000000E+00 0. -1.
       21   -1    0    0  502  503  0.00000000000E+00  0.00000000000E+00 -0.11106169098E+04  0.11106169098E+04  0.00000000000E+00 0. -1.
  1000006    1    1    2  501    0 -0.50387899243E+02  0.27240343167E+02 -0.21297181491E+03  0.41368825295E+03  0.35000000000E+03 0.  0.
 -1000006    1    1    2    0  503  0.50387899243E+02 -0.27240343167E+02 -0.75784656258E+03  0.83672718917E+03  0.35000000000E+03 0.  0.
<scales pt_clust_1="13000.00000" pt_clust_2="13000.00000"></scales>
<clustering>
<clus scale="  354.656">  1  3  2 -1</clus>
<clus scale="  354.656">  1  3  2 -1</clus>
</clustering>
</event>
<event>
 4   0  0.3464723E-02  0.3564755E+03  0.7816531E-02  0.1059988E+00
       21   -1    0    0  503  502  0.00000000000E+00  0.00000000000E+00  0.66993173070E+03  0.66993173070E+03  0.00000000000E+00 0. -1.
       21   -1    0    0  501  503  0.00000000000E+00  0.00000000000E+00 -0.20156834568E+03  0.20156834568E+03  0.00000000000E+00 0. -1.
  1000006    1    1    2  501    0 -0.60399312224E+02 -0.30442076901E+02  0.12837126856E+03  0.37888517991E+03  0.35000000000E+03 0.  0.
 -1000006    1    1    2    0  502  0.60399312224E+02  0.30442076901E+02  0.33999211647E+03  0.49261489647E+03  0.35000000000E+03 0.  0.
<scales pt_clust_1="13000.00000" pt_clust_2="13000.00000"></scales>
<clustering>
<clus scale="  356.476">  2  3  1 -1</clus>
<clus scale="  356.476">  1  3  2 -1</clus>
</clustering>
</event>
<event>
 6   2  0.3464723E-02  0.3946066E+03  0.7816531E-02  0.1045663E+00
       21   -1    0    0  501  502  0.00000000000E+00  0.00000000000E+00  0.73968656513E+03  0.73968656513E+03  0.00000000000E+00 0. -1.
       21   -1    0    0  504  503  0.00000000000E+00  0.00000000000E+00 -0.76392653091E+03  0.76392653091E+03  0.00000000000E+00 0. -1.
  1000006    1    1    2  501    0  0.83487522156E+02 -0.17546005592E+03  0.53320634809E+03  0.66675738258E+03  0.35000000000E+03 0.  0.
 -1000006    1    1    2    0  503 -0.14704955481E+03  0.94999627881E+01 -0.52436390574E+03  0.64743441869E+03  0.35000000000E+03 0.  0.
       21    1    1    2  504  505  0.23998100493E+01  0.44158984550E+02 -0.29346039047E+02  0.53075088437E+02  0.00000000000E+00 0. -1.
       21    1    1    2  505  502  0.61162222602E+02  0.12180110858E+03 -0.37363690799E+01  0.13634620633E+03  0.00000000000E+00 0. -1.
<scales pt_clust_1="13000.00000" pt_clust_2="13000.00000" pt_clust_3="32.23850" pt_clust_4="186.51000"></scales>
<clustering>
<clus scale="   32.238">  5  6 -1 -1</clus>
<clus scale="  186.510">  2  5  1 -1</clus>
<clus scale="  394.607">  2  4  1 -1</clus>
<clus scale="  394.607">  1  3  2 -1</clus>
</clustering>
</event>
<event>
 6   2  0.3464723E-02  0.5365848E+03  0.7816531E-02  0.1004648E+00
       21   -1    0    0  502  503  0.00000000000E+00  0.00000000000E+00  0.10378331816E+04  0.10378331816E+04  0.00000000000E+00 0.  1.
       21   -1    0    0  501  504  0.00000000000E+00  0.00000000000E+00 -0.74263399570E+03  0.74263399570E+03  0.00000000000E+00 0. -1.
  1000006    1    1    2  501    0  0.33845176915E+03 -0.21793317298E+03 -0.44949305019E+03  0.69755893665E+03  0.35000000000E+03 0.  0.
 -1000006    1    1    2    0  503 -0.31208691822E+03  0.29260725253E+03  0.29965086566E+03  0.62873515096E+03  0.35000000000E+03 0.  0.
        3    1    1    2  502    0 -0.30611255335E+02 -0.25557631122E+02  0.15965930030E+03  0.16456407152E+03  0.00000000000E+00 0. -1.
       -3    1    1    2    0  504  0.42464044115E+01 -0.49116448428E+02  0.28538207012E+03  0.28960901817E+03  0.00000000000E+00 0.  1.
<scales pt_clust_1="13000.00000" pt_clust_2="13000.00000" pt_clust_3="90.61663" pt_clust_4="90.61663"></scales>
<clustering>
<clus scale="   39.614">  5  6 -1 -1</clus>
<clus scale="   90.617">  1  5  2 -1</clus>
<clus scale="  536.585">  1  4  2 -1</clus>
<clus scale="  536.585">  1  3  2 -1</clus>
</clustering>
</event>
<event>
 6   2  0.3464723E-02  0.3795497E+03  0.7816531E-02  0.1051100E+00
        1   -1    0    0  504    0  0.00000000000E+00  0.00000000000E+00  0.18708703697E+04  0.18708703697E+04  0.00000000000E+00 0.  1.
       21   -1    0    0  502  503  0.00000000000E+00  0.00000000000E+00 -0.75004987723E+03  0.75004987723E+03  0.00000000000E+00 0.  1.
  1000006    1    1    2  501    0  0.91965176479E+01 -0.18962003771E+03 -0.69893739855E+02  0.40425916132E+03  0.35000000000E+03 0.  0.
 -1000006    1    1    2    0  503 -0.42169538825E+02  0.12378675141E+03 -0.42941293677E+03  0.56920725583E+03  0.35000000000E+03 0.  0.
       21    1    1    2  504  501 -0.93922651106E+01  0.44693334838E+02  0.25858182256E+02  0.52481943680E+02  0.00000000000E+00 0.  1.
        1    1    1    2  502    0  0.42365286287E+02  0.21139951461E+02  0.15942689868E+04  0.15949718861E+04  0.00000000000E+00 0.  1.
<scales pt_clust_1="13000.00000" pt_clust_2="13000.00000" pt_clust_3="45.66956" pt_clust_4="69.09917"></scales>
<clustering>
<clus scale="   45.670">  1  5  2 -1</clus>
<clus scale="   69.099">  1  6  2 -1</clus>
<clus scale="  379.550">  2  4  1 -1</clus>
<clus scale="  379.550">  2  3  1 -1</clus>
</clustering>
</event>
<event>
 5   1  0.3464723E-02  0.3950854E+03  0.7816531E-02  0.1045495E+00
       21   -1    0    0  503  502  0.00000000000E+00  0.00000000000E+00  0.30382031153E+03  0.30382031153E+03  0.00000000000E+00 0.  1.
       21   -1    0    0  504  503  0.00000000000E+00  0.00000000000E+00 -0.76701533926E+03  0.76701533926E+03  0.00000000000E+00 0. -1.
  1000006    1    1    2  501    0  0.13251303343E+03  0.87665820211E+01 -0.19853018032E+03  0.42373433834E+03  0.35000000000E+03 0.  0.
 -1000006    1    1    2    0  502 -0.21404874623E+03 -0.67052233076E+02 -0.61064449731E+02  0.42016869796E+03  0.35000000000E+03 0.  0.
       21    1    1    2  504  501  0.81535712801E+02  0.58285651055E+02 -0.20360039769E+03  0.22693261449E+03  0.00000000000E+00 0. -1.
<scales pt_clust_1="13000.00000" pt_clust_2="13000.00000" pt_clust_3="100.22619"></scales>
<clustering>
<clus scale="  100.226">  2  5  1 -1</clus>
<clus scale="  395.085">  2  3  1 -1</clus>
<clus scale="  395.085">  1  3  2 -1</clus>
</clustering>
</event>
<event>
 4   0  0.3464723E-02  0.3914155E+03  0.7816531E-02  0.1046793E+00
       21   -1    0    0  503  502  0.00000000000E+00  0.00000000000E+00  0.88973756935E+03  0.88973756935E+03  0.00000000000E+00 0.  1.
       21   -1    0    0  501  503  0.00000000000E+00  0.00000000000E+00 -0.18497767687E+03  0.18497767687E+03  0.00000000000E+00 0.  1.
  1000006    1    1    2  501    0  0.11424168563E+03 -0.13287199322E+03  0.21110756701E+03  0.44471624005E+03  0.35000000000E+03 0.  0.
 -1000006    1    1    2    0  502 -0.11424168563E+03  0.13287199322E+03  0.49365232547E+03  0.62999900616E+03  0.35000000000E+03 0.  0.
<scales pt_clust_1="13000.00000" pt_clust_2="13000.00000"></scales>
<clustering>
<clus scale="  391.416">  2  3  1 -1</clus>
<clus scale="  391.416">  1  3  2 -1</clus>
</clustering>
</event>
<event>
 5   1  0.3464723E-02  0.3576567E+03  0.7816531E-02  0.1059516E+00
       -1   -1    0    0    0  501  0.00000000000E+00  0.00000000000E+00  0.13679844026E+04  0.13679844026E+04  0.00000000000E+00 0.  1.
       21   -1    0    0  501  503  0.00000000000E+00  0.00000000000E+00 -0.12557247823E+04  0.12557247823E+04  0.00000000000E+00 0. -1.
  1000006    1    1    2  502    0 -0.17459692598E+03 -0.91653229189E+02 -0.52645106298E+03  0.66221984469E+03  0.35000000000E+03 0.  0.
 -1000006    1    1    2    0  503 -0.17972677349E+01 -0.28497528530E+02 -0.60503798271E+03  0.69956150539E+03  0.35000000000E+03 0.  0.
       -1    1    1    2    0  502  0.17639419371E+03  0.12015075772E+03  0.12437486660E+04  0.12619278348E+04  0.00000000000E+00 0.  1.
<scales pt_clust_1="13000.00000" pt_clust_2="13000.00000" pt_clust_3="213.42707"></scales>
<clustering>
<clus scale="  213.427">  1  5  2 -1</clus>
<clus scale="  357.657">  2  4  1 -1</clus>
<clus scale="  357.657">  2  3  1 -1</clus>
</clustering>
</event>
<event>
 6   2  0.3464723E-02  0.4360384E+03  0.7816531E-02  0.1031969E+00
       21   -1    0    0  505  502  0.00000000000E+00  0.00000000000E+00  0.24680775597E+04  0.24680775597E+04  0.00000000000E+00 0.  1.
       21   -1    0    0  504  503  0.00000000000E+00  0.00000000000E+00 -0.11961173539E+04  0.11961173539E+04  0.00000000000E+00 0.  1.
  1000006    1    1    2  501    0  0.46252746771E+03  0.54892649386E+02  0.22372347155E+03  0.62409699011E+03  0.35000000000E+03 0.  0.
 -1000006    1    1    2    0  502 -0.20196302966E+03  0.14408343838E+03  0.19770429478E+04  0.20230541070E+04  0.35000000000E+03 0.  0.
       21    1    1    2  504  501 -0.22561603659E+03 -0.24694548323E+03 -0.63932125211E+03  0.72153747724E+03  0.00000000000E+00 0.  1.
       21    1    1    2  505  503 -0.34948401448E+02  0.47969395466E+02 -0.28948496140E+03  0.29550633925E+03  0.00000000000E+00 0.  1.
<scales pt_clust_1="13000.00000" pt_clust_2="13000.00000" pt_clust_3="328.50693" pt_clust_4="59.35026"></scales>
<clustering>
<clus scale="   59.350">  2  6  1 -1</clus>
<clus scale="  328.507">  2  5  1 -1</clus>
<clus scale="  436.038">  2  3  1 -1</clus>
<clus scale="  436.038">  1  3  2 -1</clus>
</clustering>
</event>
<event>
 4   0  0.3464723E-02  0.4045718E+03  0.7816531E-02  0.1042208E+00
       -1   -1    0    0    0  501  0.00000000000E+00  0.00000000000E+00  0.11576200136E+03  0.11576200136E+03  0.00000000000E+00 0.  1.
        1   -1    0    0  502    0  0.00000000000E+00  0.00000000000E+00 -0.14147611758E+04  0.14147611758E+04  0.00000000000E+00 0. -1.
  1000006    1    1    2  502    0 -0.95413062252E+01  0.20270008151E+03 -0.66814515492E+03  0.78108661979E+03  0.35000000000E+03 0.  0.
 -1000006    1    1    2    0  501  0.95413062252E+01 -0.20270008151E+03 -0.63085401951E+03  0.74943655735E+03  0.35000000000E+03 0.  0.
<scales pt_clust_1="13000.00000" pt_clust_2="13000.00000"></scales>
<clustering>
<clus scale="  536.286">  3  4 -1 -1</clus>
<clus scale="  404.572">  2  3  1 -1</clus>
</clustering>
</event>
<event>
 6   2  0.3464723E-02  0.4217426E+03  0.7816531E-02  0.1036501E+00
       21   -1    0    0  501  503  0.00000000000E+00  0.00000000000E+00  0.14054034972E+04  0.14054034972E+04  0.00000000000E+00 0.  1.
        2   -1    0    0  503    0  0.00000000000E+00  0.00000000000E+00 -0.88939763808E+03  0.88939763808E+03  0.00000000000E+00 0.  1.
  1000006    1    1    2  501    0  0.61515697498E+02 -0.24044121994E+03  0.81569327446E+03  0.92165702910E+03  0.35000000000E+03 0.  0.
 -1000006    1    1    2    0  504 -0.14153701496E+03  0.17865189459E+03  0.45106407870E+03  0.61474224610E+03  0.35000000000E+03 0.  0.
       21    1    1    2  504  502  0.46555728517E+02  0.31261196697E+02 -0.28584466403E+03  0.29129344351E+03  0.00000000000E+00 0.  1.
        2    1    1    2  502    0  0.33465588947E+02  0.30528128649E+02 -0.46490683000E+03  0.46710841660E+03  0.00000000000E+00 0.  1.
<scales pt_clust_1="13000.00000" pt_clust_2="13000.00000" pt_clust_3="32.70611" pt_clust_4="107.45034"></scales>
<clustering>
<clus scale="   32.706">  5  6 -1 -1</clus>
<clus scale="  107.450">  2  5  1 -1</clus>
<clus scale="  421.743">  2  4  1 -1</clus>
<clus scale="  421.743">  1  3  2 -1</clus>
</clustering>
</event>
<event>
 5   1  0.3464723E-02  0.3845739E+03  0.7816531E-02  0.1049256E+00
       21   -1    0    0  503  502  0.00000000000E+00  0.00000000000E+00  0.66686392933E+03  0.66686392933E+03  0.00000000000E+00 0. -1.
       21   -1    0    0  501  503  0.00000000000E+00  0.00000000000E+00 -0.37152939431E+03  0.37152939431E+03  0.00000000000E+00 0. -1.
  1000006    1    1    2  501    0  0.15215766534E+03  0.18624747534E+02 -0.76118383059E+02  0.38960601199E+03  0.35000000000E+03 0.  0.
 -1000006    1    1    2    0  504 -0.16370817852E+03 -0.52701137078E+02  0.13967076445E+03  0.41422904293E+03  0.35000000000E+03 0.  0.
       21    1    1    2  504  502  0.11550513181E+02  0.34076389544E+02  0.23178215363E+03  0.23455826871E+03  0.00000000000E+00 0. -1.
<scales pt_clust_1="13000.00000" pt_clust_2="13000.00000" pt_clust_3="35.98075"></scales>
<clustering>
<clus scale="   35.981">  1  5  2 -1</clus>
<clus scale="  384.574">  1  4  2 -1</clus>
<clus scale="  384.574">  1  3  2 -1</clus>
</clustering>
</event>
<event>
 5   1  0.3464723E-02  0.9137923E+03  0.7816531E-02  0.9408503E-01
       21   -1    0    0  504  502  0.00000000000E+00  0.00000000000E+00  0.19047666220E+04  0.19047666220E+04  0.00000000000E+00 0. -1.
       21   -1    0    0  502  503  0.00000000000E+00  0.00000000000E+00 -0.51838433675E+03  0.51838433675E+03  0.00000000000E+00 0.  1.
  1000006    1    1    2  501    0  0.17026188463E+03  0.79866264851E+03  0.99438936948E+03  0.13334771665E+04  0.35000000000E+03 0.  0.
 -1000006    1    1    2    0  503 -0.14221182323E+03 -0.84741461571E+03  0.28806591575E+03  0.97150280771E+03  0.35000000000E+03 0.  0.
       21    1    1    2  504  501 -0.28050061393E+02  0.48751967196E+02  0.10392700003E+03  0.11817098453E+03  0.00000000000E+00 0. -1.
<scales pt_clust_1="13000.00000" pt_clust_2="13000.00000" pt_clust_3="56.24554"></scales>
<clustering>
<clus scale="   56.246">  1  5  2 -1</clus>
<clus scale="  913.792">  1  3  2 -1</clus>
<clus scale="  913.792">  1  3  2 -1</clus>
</clustering>
</event>
<event>
 5   1  0.3464723E-02  0.3522982E+03  0.7816531E-02  0.1061676E+00
       21   -1    0    0  504  502  0.00000000000E+00  0.00000000000E+00  0.29886840918E+03  0.29886840918E+03  0.00000000000E+00 0.  1.
       21   -1    0    0  501  503  0.00000000000E+00  0.00000000000E+00 -0.64959205959E+03  0.64959205959E+03  0.00000000000E+00 0.  1.
  1000006    1    1    2  501    0  0.46405913041E+01  0.16940378145E+02 -0.20335375596E+03  0.40516818923E+03  0.35000000000E+03 0.  0.
 -1000006    1    1    2    0  502 -0.22654949649E+02  0.66761443982E+02  0.17562050115E+02  0.35746155423E+03  0.35000000000E+03 0.  0.
       21    1    1    2  504  503  0.18014358345E+02 -0.83701822127E+02 -0.16493194456E+03  0.18583072531E+03  0.00000000000E+00 0.  1.
<scales pt_clust_1="13000.00000" pt_clust_2="13000.00000" pt_clust_3="85.61841"></scales>
<clustering>
<clus scale="   85.618">  2  5  1 -1</clus>
<clus scale="  352.298">  2  3  1 -1</clus>
<clus scale="  352.298">  1  3  2 -1</clus>
</clustering>
</event>
<event>
 4   0  0.3464723E-02  0.5297884E+03  0.7816531E-02  0.1006283E+00
       21   -1    0    0  503  502  0.00000000000E+00  0.00000000000E+00  0.41028176311E+03  0.41028176311E+03  0.00000000000E+00 0. -1.
       21   -1    0    0  501  503  0.00000000000E+00  0.00000000000E+00 -0.11632465199E+04  0.11632465199E+04  0.00000000000E+00 0. -1.
  1000006    1    1    2  501    0  0.36944903185E+03 -0.14725215226E+03 -0.88142334179E+03  0.10283884922E+04  0.35000000000E+03 0.  0.
 -1000006    1    1    2    0  502 -0.36944903185E+03  0.14725215226E+03  0.12845858497E+03  0.54513979082E+03  0.35000000000E+03 0.  0.
<scales pt_clust_1="13000.00000" pt_clust_2="13000.00000"></scales>
<clustering>
<clus scale="  529.788">  2  3  1 -1</clus>
<clus scale="  529.788">  1  3  2 -1</clus>
</clustering>
</event>
<event>
 6   2  0.3464723E-02  0.5160264E+03  0.7816531E-02  0.1009678E+00
       21   -1    0    0  505  502  0.00000000000E+00  0.00000000000E+00  0.78032964631E+03  0.78032964631E+03  0.00000000000E+00 0.  1.
       21   -1    0    0  501  503  0.00000000000E+00  0.00000000000E+00 -0.88069116400E+03  0.88069116400E+03  0.00000000000E+00 0. -1.
  1000006    1    1    2  501    0 -0.26928408892E+03  0.21135110337E+03 -0.11728290283E+03  0.50342674615E+03  0.35000000000E+03 0.  0.
 -1000006    1    1    2    0  504  0.32449828529E+03 -0.30537341788E+03 -0.38119333608E+02  0.56789536457E+03  0.35000000000E+03 0.  0.
       21    1    1    2  504  502 -0.10497128090E+03  0.93238069621E+02  0.30450777984E+03  0.33531670913E+03  0.00000000000E+00 0.  1.
       21    1    1    2  505  503  0.49757084528E+02  0.78424489280E+00 -0.24946706109E+03  0.25438199046E+03  0.00000000000E+00 0. -1.
<scales pt_clust_1="13000.00000" pt_clust_2="13000.00000" pt_clust_3="139.50431" pt_clust_4="49.76326"></scales>
<clustering>
<clus scale="   49.763">  2  6  1 -1</clus>
<clus scale="  139.504">  1  5  2 -1</clus>
<clus scale="  516.026">  2  3  1 -1</clus>
<clus scale="  516.026">  1  3  2 -1</clus>
</clustering>
</event>
<event>
 4   0  0.3464723E-02  0.3675064E+03  0.7816531E-02  0.1055651E+00
       21   -1    0    0  503  502  0.00000000000E+00  0.00000000000E+00  0.77744731773E+02  0.77744731773E+02  0.00000000000E+00 0.  1.
       21   -1    0    0  501  503  0.00000000000E+00  0.00000000000E+00 -0.24424016262E+04  0.24424016262E+04  0.00000000000E+00 0.  1.
  1000006    1    1    2  501    0 -0.28054219452E+01 -0.11204066299E+03 -0.18593970280E+04  0.18953675866E+04  0.35000000000E+03 0.  0.
 -1000006    1    1    2    0  502  0.28054219452E+01  0.11204066299E+03 -0.50525986644E+03  0.62477877140E+03  0.35000000000E+03 0.  0.
<scales pt_clust_1="13000.00000" pt_clust_2="13000.00000"></scales>
<clustering>
<clus scale="  367.506">  2  3  1 -1</clus>
<clus scale="  367.506">  1  3  2 -1</clus>
</clustering>
</event>
<event>
 5   1  0.3464723E-02  0.3598313E+03  0.7816531E-02  0.1058651E+00
       21   -1    0    0  503  502  0.00000000000E+00  0.00000000000E+00  0.20019109510E+03  0.20019109510E+03  0.00000000000E+00 0. -1.
       21   -1    0    0  504  503  0.00000000000E+00  0.00000000000E+00 -0.81934673627E+03  0.81934673627E+03  0.00000000000E+00 0. -1.
  1000006    1    1    2  501    0  0.10478729162E+03  0.12055037799E+02 -0.42391001742E+03  0.55975477067E+03  0.35000000000E+03 0.  0.
 -1000006    1    1    2    0  502 -0.67998795678E+02 -0.27818261956E+02 -0.12483006270E+03  0.37878785153E+03  0.35000000000E+03 0.  0.
       21    1    1    2  504  501 -0.36788495944E+02  0.15763224158E+02 -0.70415561056E+02  0.80995209170E+02  0.00000000000E+00 0.  1.
<scales pt_clust_1="13000.00000" pt_clust_2="13000.00000" pt_clust_3="40.02340"></scales>
<clustering>
<clus scale="   40.023">  2  5  1 -1</clus>
<clus scale="  359.831">  2  3  1 -1</clus>
<clus scale="  359.831">  1  3  2 -1</clus>
</clustering>
</event>
<event>
 4   0  0.3464723E-02  0.4352298E+03  0.7816531E-02  0.1032221E+00
       21   -1    0    0  503  502  0.00000000000E+00  0.00000000000E+00  0.21605335365E+04  0.21605335365E+04  0.00000000000E+00 0. -1.
       21   -1    0    0  501  503  0.00000000000E+00  0.00000000000E+00 -0.30905123852E+03  0.30905123852E+03  0.00000000000E+00 0.  1.
  1000006    1    1    2  501    0  0.19474915323E+03  0.17028718732E+03 -0.11932581422E+03  0.45129104665E+03  0.35000000000E+03 0.  0.
 -1000006    1    1    2    0  502 -0.19474915323E+03 -0.17028718732E+03  0.19708081122E+04  0.20182937284E+04  0.35000000000E+03 0.  0.
<scales pt_clust_1="13000.00000" pt_clust_2="13000.00000"></scales>
<clustering>
<clus scale="  435.230">  2  3  1 -1</clus>
<clus scale="  435.230">  1  3  2 -1</clus>
</clustering>
</event>
<event>
 6   2  0.3464723E-02  0.4007822E+03  0.7816531E-02  0.1043509E+00
       21   -1    0    0  505  502  0.00000000000E+00  0.00000000000E+00  0.18489351285E+04  0.18489351285E+04  0.00000000000E+00 0. -1.
       21   -1    0    0  504  503  0.00000000000E+00  0.00000000000E+00 -0.27046260212E+03  0.27046260212E+03  0.00000000000E+00 0. -1.
  1000006    1    1    2  501    0 -0.66285717170E+01  0.12786303504E+03  0.83863619467E+03  0.91771649256E+03  0.35000000000E+03 0.  0.
 -1000006    1    1    2    0  503  0.35749528625E+02 -0.20683704190E+03 -0.31243247100E+02  0.40931128886E+03  0.35000000000E+03 0.  0.
       21    1    1    2  504  502  0.41858011528E+02 -0.10575450301E+02  0.71529586830E+02  0.83548878331E+02  0.00000000000E+00 0.  1.
       21    1    1    2  505  501 -0.70978968437E+02  0.89549457166E+02  0.69954999201E+03  0.70882107091E+03  0.00000000000E+00 0. -1.
<scales pt_clust_1="13000.00000" pt_clust_2="13000.00000" pt_clust_3="43.17329" pt_clust_4="101.17594"></scales>
<clustering>
<clus scale="   43.173">  1  5  2 -1</clus>
<clus scale="  101.176">  1  6  2 -1</clus>
<clus scale="  400.782">  1  3  2 -1</clus>
<clus scale="  400.782">  1  3  2 -1</clus>
</clustering>
</event>
<event>
 4   0  0.3464723E-02  0.5007055E+03  0.7816531E-02  0.1013595E+00
       21   -1    0    0  503  502  0.00000000000E+00  0.00000000000E+00  0.13051081236E+04  0.13051081236E+04  0.00000000000E+00 0. -1.
       21   -1    0    0  501  503  0.00000000000E+00  0.00000000000E+00 -0.32168441933E+03  0.32168441933E+03  0.00000000000E+00 0.  1.
  1000006    1    1    2  501    0  0.16209582750E+03  0.31926626217E+03 -0.24550338900E+02  0.50130701431E+03  0.35000000000E+03 0.  0.
 -1000006    1    1    2    0  502 -0.16209582750E+03 -0.31926626217E+03  0.10079740432E+04  0.11254855287E+04  0.35000000000E+03 0.  0.
<scales pt_clust_1="13000.00000" pt_clust_2="13000.00000"></scales>
<clustering>
<clus scale="  500.706">  2  3  1 -1</clus>
<clus scale="  500.706">  1  3  2 -1</clus>
</clustering>
</event>
<event>
 5   1  0.3464723E-02  0.3919962E+03  0.7816531E-02  0.1046587E+00
       21   -1    0    0  504  502  0.00000000000E+00  0.00000000000E+00  0.68116466864E+03  0.68116466864E+03  0.00000000000E+00 0.  1.
       21   -1    0    0  501  503  0.00000000000E+00  0.00000000000E+00 -0.63452376104E+03  0.63452376104E+03  0.00000000000E+00 0.  1.
  1000006    1    1    2  501    0  0.19952368530E+02  0.21780094995E+03 -0.38306510992E+03  0.56309344629E+03  0.35000000000E+03 0.  0.
 -1000006    1    1    2    0  502  0.12269036478E+03 -0.37280667292E+02  0.18298012447E+03  0.41524029153E+03  0.35000000000E+03 0.  0.
       21    1    1    2  504  503 -0.14264273331E+03 -0.18052028266E+03  0.24672589306E+03  0.33735469186E+03  0.00000000000E+00 0.  1.
<scales pt_clust_1="13000.00000" pt_clust_2="13000.00000" pt_clust_3="230.07504"></scales>
<clustering>
<clus scale="  230.075">  1  5  2 -1</clus>
<clus scale="  391.996">  2  3  1 -1</clus>
<clus scale="  391.996">  1  3  2 -1</clus>
</clustering>
</event>
<event>
 6   2  0.3464723E-02  0.3971371E+03  0.7816531E-02  0.1044776E+00
       21   -1    0    0  505  502  0.00000000000E+00  0.00000000000E+00  0.10485557667E+04  0.10485557667E+04  0.00000000000E+00 0. -1.
       21   -1    0    0  504  503  0.00000000000E+00  0.00000000000E+00 -0.28605785648E+03  0.28605785648E+03  0.00000000000E+00 0. -1.
  1000006    1    1    2  501    0  0.16327354919E+03 -0.11818042806E+03  0.34421614838E+03  0.53066903268E+03  0.35000000000E+03 0.  0.
 -1000006    1    1    2    0  503 -0.58383160531E+02  0.18536973822E+03  0.89688351156E+02  0.41026154294E+03  0.35000000000E+03 0.  0.
       21    1    1    2  504  502 -0.17464549632E+02 -0.96702499297E+02  0.74384360650E+02  0.12324535275E+03  0.00000000000E+00 0. -1.
       21    1    1    2  505  501 -0.87425839031E+02  0.29513189142E+02  0.25420905008E+03  0.27043769487E+03  0.00000000000E+00 0. -1.
<scales pt_clust_1="13000.00000" pt_clust_2="13000.00000" pt_clust_3="97.24854" pt_clust_4="92.27300"></scales>
<clustering>
<clus scale="   92.273">  1  6  2 -1</clus>
<clus scale="   97.249">  1  5  2 -1</clus>
<clus scale="  397.137">  2  4  1 -1</clus>
<clus scale="  397.137">  1  3  2 -1</clus>
</clustering>
</event>
<event>
 4   0  0.3464723E-02  0.3558897E+03  0.7816531E-02  0.1060223E+00
       21   -1    0    0  501  502  0.00000000000E+00  0.00000000000E+00  0.14942869073E+03  0.14942869073E+03  0.00000000000E+00 0. -1.
       21   -1    0    0  502  503  0.00000000000E+00  0.00000000000E+00 -0.84803524286E+03  0.84803524286E+03  0.00000000000E+00 0. -1.
  1000006    1    1    2  501    0 -0.35130482904E+02  0.54067831532E+02 -0.33815530410E+03  0.49092411932E+03  0.35000000000E+03 0.  0.
 -1000006    1    1    2    0  503  0.35130482904E+02 -0.54067831532E+02 -0.36045124803E+03  0.50653981427E+03  0.35000000000E+03 0.  0.
<scales pt_clust_1="13000.00000" pt_clust_2="13000.00000"></scales>
<clustering>
<clus scale="  355.890">  1  3  2 -1</clus>
<clus scale="  355.890">  1  3  2 -1</clus>
</clustering>
</event>
<event>
 5   1  0.3464723E-02  0.3538619E+03  0.7816531E-02  0.1061041E+00
       21   -1    0    0  504  502  0.00000000000E+00  0.00000000000E+00  0.18955167743E+04  0.18955167743E+04  0.00000000000E+00 0. -1.
       21   -1    0    0  501  503  0.00000000000E+00  0.00000000000E+00 -0.12205155652E+03  0.12205155652E+03  0.00000000000E+00 0. -1.
  1000006    1    1    2  501    0 -0.28470300031E+02  0.34875976445E+02  0.28007187863E+03  0.45051875534E+03  0.35000000000E+03 0.  0.
 -1000006    1    1    2    0  502  0.13843908048E+02 -0.73587066741E+02  0.84943204658E+03  0.92176000778E+03  0.35000000000E+03 0.  0.
       21    1    1    2  504  503  0.14626391984E+02  0.38711090296E+02  0.64396129258E+03  0.64528956771E+03  0.00000000000E+00 0. -1.
<scales pt_clust_1="13000.00000" pt_clust_2="13000.00000" pt_clust_3="41.38212"></scales>
<clustering>
<clus scale="   41.382">  1  5  2 -1</clus>
<clus scale="  353.862">  1  4  2 -1</clus>
<clus scale="  353.862">  1  3  2 -1</clus>
</clustering>
</event>
<event>
 6   2  0.3464723E-02  0.4145877E+03  0.7816531E-02  0.1038842E+00
       21   -1    0    0  505  502  0.00000000000E+00  0.00000000000E+00  0.42601628729E+03  0.42601628729E+03  0.00000000000E+00 0.  1.
       21   -1    0    0  504  503  0.00000000000E+00  0.00000000000E+00 -0.80697084064E+03  0.80697084064E+03  0.00000000000E+00 0.  1.
  1000006    1    1    2  501    0 -0.18227401676E+03  0.11249109055E+03 -0.38883282715E+03  0.56530436944E+03  0.35000000000E+03 0.  0.
 -1000006    1    1    2    0  502  0.99122079043E+02 -0.13431729804E+03  0.11904132210E+03  0.40563180284E+03  0.35000000000E+03 0.  0.
       21    1    1    2  504  501 -0.55417688412E+02  0.18175688165E+02 -0.10876193760E+03  0.12341245845E+03  0.00000000000E+00 0. -1.
       21    1    1    2  505  503  0.13856962613E+03  0.36505193194E+01 -0.24011106967E+01  0.13863849721E+03  0.00000000000E+00 0.  1.
<scales pt_clust_1="13000.00000" pt_clust_2="13000.00000" pt_clust_3="58.32217" pt_clust_4="133.02702"></scales>
<clustering>
<clus scale="   58.322">  2  5  1 -1</clus>
<clus scale="  133.027">  1  6  2 -1</clus>
<clus scale="  414.588">  1  4  2 -1</clus>
<clus scale="  414.588">  1  3  2 -1</clus>
</clustering>
</event>
<event>
 5   1  0.3464723E-02  0.4437943E+03  0.7816531E-02  0.1029589E+00
        2   -1    0    0  503    0  0.00000000000E+00  0.00000000000E+00  0.20819173486E+04  0.20819173486E+04  0.00000000000E+00 0. -1.
       21   -1    0    0  501  503  0.00000000000E+00  0.00000000000E+00 -0.25205913465E+03  0.25205913465E+03  0.00000000000E+00 0. -1.
  1000006    1    1    2  501    0  0.26223441840E+03 -0.42857967773E+02  0.76950380533E+02  0.44612224408E+03  0.35000000000E+03 0.  0.
 -1000006    1    1    2    0  502 -0.28624883715E+03  0.70772864334E+02  0.71265593435E+03  0.84695081077E+03  0.35000000000E+03 0.  0.
        2    1    1    2  502    0  0.24014418745E+02 -0.27914896561E+02  0.10402518990E+04  0.10409034284E+04  0.00000000000E+00 0. -1.
<scales pt_clust_1="13000.00000" pt_clust_2="13000.00000" pt_clust_3="36.82301"></scales>
<clustering>
<clus scale="   36.823">  1  5  2 -1</clus>
<clus scale="  443.794">  2  3  1 -1</clus>
<clus scale="  443.794">  2  3  1 -1</clus>
</clustering>
</event>
<event>
 6   2  0.3464723E-02  0.3590574E+03  0.7816531E-02  0.1058958E+00
       21   -1    0    0  501  502  0.00000000000E+00  0.00000000000E+00  0.46848597598E+03  0.46848597598E+03  0.00000000000E+00 0.  1.
       21   -1    0    0  504  503  0.00000000000E+00  0.00000000000E+00 -0.47368755988E+03  0.47368755988E+03  0.00000000000E+00 0.  1.
  1000006    1    1    2  501    0 -0.24319862787E+02 -0.90394674208E+02 -0.26210143539E+02  0.36324870884E+03  0.35000000000E+03 0.  0.
 -1000006    1    1    2    0  503  0.20834829572E+02  0.59295652599E+02 -0.10576542475E+03  0.37099378649E+03  0.35000000000E+03 0.  0.
       21    1    1    2  504  505  0.36909937138E+02  0.25107382097E+02 -0.25843675928E+02  0.51581195030E+02  0.00000000000E+00 0. -1.
       21    1    1    2  505  502 -0.33424903922E+02  0.59916395114E+01  0.15261766031E+03  0.15634984549E+03  0.00000000000E+00 0.  1.
<scales pt_clust_1="13000.00000" pt_clust_2="13000.00000" pt_clust_3="43.65626" pt_clust_4="33.95768"></scales>
<clustering>
<clus scale="   33.958">  1  6  2 -1</clus>
<clus scale="   43.656">  2  5  1 -1</clus>
<clus scale="  359.057">  1  3  2 -1</clus>
<clus scale="  359.057">  1  3  2 -1</clus>
</clustering>
</event>
<event>
 5   1  0.3464723E-02  0.4044013E+03  0.7816531E-02  0.1042266E+00
       21   -1    0    0  501  502  0.00000000000E+00  0.00000000000E+00  0.11362881616E+04  0.11362881616E+04  0.00000000000E+00 0. -1.
       21   -1    0    0  504  503  0.00000000000E+00  0.00000000000E+00 -0.21900537807E+03  0.21900537807E+03  0.00000000000E+00 0. -1.
  1000006    1    1    2  501    0  0.17293061142E+03  0.15299455370E+03  0.31035384090E+03  0.52166256948E+03  0.35000000000E+03 0.  0.
 -1000006    1    1    2    0  503 -0.93017231660E+02 -0.15745801918E+03  0.24896551835E+03  0.46682872932E+03  0.35000000000E+03 0.  0.
       21    1    1    2  504  502 -0.79913379764E+02  0.44634654776E+01  0.35796342429E+03  0.36680224089E+03  0.00000000000E+00 0. -1.
<scales pt_clust_1="13000.00000" pt_clust_2="13000.00000" pt_clust_3="80.03793"></scales>
<clustering>
<clus scale="   80.038">  1  5  2 -1</clus>
<clus scale="  404.401">  1  3  2 -1</clus>
<clus scale="  404.401">  1  3  2 -1</clus>
</clustering>
</event>
<event>
 4   0  0.3464723E-02  0.3631661E+03  0.7816531E-02  0.1057337E+00
       21   -1    0    0  503  502  0.00000000000E+00  0.00000000000E+00  0.46758411050E+03  0.46758411050E+03  0.00000000000E+00 0.  1.
       21   -1    0    0  501  503  0.00000000000E+00  0.00000000000E+00 -0.36445440500E+03  0.36445440500E+03  0.00000000000E+00 0.  1.
  1000006    1    1    2  501    0  0.64224934963E+02  0.72558899001E+02 -0.14623436182E+03  0.39150239421E+03  0.35000000000E+03 0.  0.
 -1000006    1    1    2    0  502 -0.64224934963E+02 -0.72558899001E+02  0.24936406732E+03  0.44053612129E+03  0.35000000000E+03 0.  0.
<scales pt_clust_1="13000.00000" pt_clust_2="13000.00000"></scales>
<clustering>
<clus scale="  363.166">  2  3  1 -1</clus>
<clus scale="  363.166">  1  3  2 -1</clus>
</clustering>
</event>
<event>
 6   2  0.3464723E-02  0.3629095E+03  0.7816531E-02  0.1057438E+00
       21   -1    0    0  501  502  0.00000000000E+00  0.00000000000E+00  0.14282775515E+04  0.14282775515E+04  0.00000000000E+00 0.  1.
       21   -1    0    0  505  503  0.00000000000E+00  0.00000000000E+00 -0.31883861013E+03  0.31883861013E+03  0.00000000000E+00 0. -1.
  1000006    1    1    2  501    0 -0.79165086712E+02 -0.58207515979E+01  0.10079762676E+04  0.10699612835E+04  0.35000000000E+03 0.  0.
 -1000006    1    1    2    0  503  0.17244894756E+03 -0.19908490674E+03  0.85123615499E+02  0.44622804654E+03  0.35000000000E+03 0.  0.
       21    1    1    2  504  502 -0.27686890012E+02  0.11048880103E+03  0.21180763523E+02  0.11585751497E+03  0.00000000000E+00 0. -1.
       21    1    1    2  505  504 -0.65596970832E+02  0.94416857309E+02 -0.48417052457E+01  0.11506931666E+03  0.00000000000E+00 0. -1.
<scales pt_clust_1="13000.00000" pt_clust_2="13000.00000" pt_clust_3="48.47792" pt_clust_4="230.34808"></scales>
<clustering>
<clus scale="   48.478">  5  6 -1 -1</clus>
<clus scale="  230.348">  2  5  1 -1</clus>
<clus scale="  362.910">  2  4  1 -1</clus>
<clus scale="  362.910">  1  3  2 -1</clus>
</clustering>
</event>
<event>
 6   2  0.3464723E-02  0.3713626E+03  0.7816531E-02  0.1054173E+00
       21   -1    0    0  502  503  0.00000000000E+00  0.00000000000E+00  0.97866478212E+03  0.97866478212E+03  0.00000000000E+00 0.  1.
       -3   -1    0    0    0  501  0.00000000000E+00  0.00000000000E+00 -0.24237485884E+03  0.24237485884E+03  0.00000000000E+00 0.  1.
  1000006    1    1    2  502    0 -0.38480037529E+01 -0.10525240700E+03  0.18805000747E+03  0.41104218959E+03  0.35000000000E+03 0.  0.
 -1000006    1    1    2    0  504  0.41993907837E+02  0.11336521931E+03  0.50193066840E+03  0.62373837234E+03  0.35000000000E+03 0.  0.
       21    1    1    2  504  501 -0.95495606093E+02 -0.35528121936E+02 -0.86117431782E+01  0.10225370581E+03  0.00000000000E+00 0.  1.
       -3    1    1    2    0  503  0.57349702009E+02  0.27415309622E+02  0.54920990589E+02  0.84005373218E+02  0.00000000000E+00 0.  1.
<scales pt_clust_1="13000.00000" pt_clust_2="13000.00000" pt_clust_3="98.63061" pt_clust_4="63.56562"></scales>
<clustering>
<clus scale="   63.566">  1  6  2 -1</clus>
<clus scale="   98.631">  2  5  1 -1</clus>
<clus scale="  475.054">  3  4 -1 -1</clus>
<clus scale="  371.363">  1  3  2 -1</clus>
</clustering>
</event>
<event>
 4   0  0.3464723E-02  0.3726444E+03  0.7816531E-02  0.1053686E+00
       21   -1    0    0  501  502  0.00000000000E+00  0.00000000000E+00  0.25296814726E+03  0.25296814726E+03  0.00000000000E+00 0. -1.
       21   -1    0    0  502  503  0.00000000000E+00  0.00000000000E+00 -0.98934159592E+03  0.98934159592E+03  0.00000000000E+00 0. -1.
  1000006    1    1    2  501    0  0.10036615467E+03  0.79312612192E+02  0.46244183744E+02  0.37550283619E+03  0.35000000000E+03 0.  0.
 -1000006    1    1    2    0  503 -0.10036615467E+03 -0.79312612192E+02 -0.78261763241E+03  0.86680690699E+03  0.35000000000E+03 0.  0.
<scales pt_clust_1="13000.00000" pt_clust_2="13000.00000"></scales>
<clustering>
<clus scale="  372.644">  1  3  2 -1</clus>
<clus scale="  372.644">  1  3  2 -1</clus>
</clustering>
</event>
<event>
 5   1  0.3464723E-02  0.4021299E+03  0.7816531E-02  0.1043045E+00
       21   -1    0    0  503  502  0.00000000000E+00  0.00000000000E+00  0.94642713132E+03  0.94642713132E+03  0.00000000000E+00 0.  1.
       21   -1    0    0  501  503  0.00000000000E+00  0.00000000000E+00 -0.40222609461E+03  0.40222609461E+03  0.00000000000E+00 0.  1.
  1000006    1    1    2  501    0  0.12480687869E+03  0.15214031761E+03 -0.22384451039E+03  0.45970620840E+03  0.35000000000E+03 0.  0.
 -1000006    1    1    2    0  504 -0.10074119937E+03 -0.18275874101E+03  0.68135422583E+03  0.79391002495E+03  0.35000000000E+03 0.  0.
       21    1    1    2  504  502 -0.24065679328E+02  0.30618423405E+02  0.86691321276E+02  0.95036992576E+02  0.00000000000E+00 0. -1.
<scales pt_clust_1="13000.00000" pt_clust_2="13000.00000" pt_clust_3="38.94412"></scales>
<clustering>
<clus scale="   38.944">  1  5  2 -1</clus>
<clus scale="  402.130">  1  4  2 -1</clus>
<clus scale="  402.130">  1  3  2 -1</clus>
</clustering>
</event>
<event>
 6   2  0.3464723E-02  0.3730816E+03  0.7816531E-02  0.1053521E+00
        1   -1    0    0  501    0  0.00000000000E+00  0.00000000000E+00  0.10269298132E+04  0.10269298132E+04  0.00000000000E+00 0.  1.
       21   -1    0    0  502  503  0.00000000000E+00  0.00000000000E+00 -0.74520985598E+03  0.74520985598E+03  0.00000000000E+00 0. -1.
  1000006    1    1    2  501    0 -0.10740363116E+03  0.28761789751E+02  0.32662560308E+03  0.49147437890E+03  0.35000000000E+03 0.  0.
 -1000006    1    1    2    0  504  0.11136601743E+03  0.52555917570E+02 -0.42402335020E+03  0.56343616837E+03  0.35000000000E+03 0.  0.
       21    1    1    2  504  503  0.17788449432E+01  0.34786979872E+02 -0.16100949047E+03  0.16473419280E+03  0.00000000000E+00 0.  1.
        1    1    1    2  502    0 -0.57412312204E+01 -0.11610468719E+03  0.54012719479E+03  0.55249492910E+03  0.00000000000E+00 0.  1.
<scales pt_clust_1="13000.00000" pt_clust_2="13000.00000" pt_clust_3="34.83243" pt_clust_4="115.87666"></scales>
<clustering>
<clus scale="   34.832">  2  5  1 -1</clus>
<clus scale="  115.877">  1  6  2 -1</clus>
<clus scale="  373.082">  1  3  2 -1</clus>
<clus scale="  373.082">  2  3  1 -1</clus>
</clustering>
</event>
<event>
 5   1  0.3464723E-02  0.3506287E+03  0.7816531E-02  0.1062357E+00
       21   -1    0    0  503  502  0.00000000000E+00  0.00000000000E+00  0.35812626404E+03  0.35812626404E+03  0.00000000000E+00 0.  1.
       21   -1    0    0  504  503  0.00000000000E+00  0.00000000000E+00 -0.43228047641E+03  0.43228047641E+03  0.00000000000E+00 0.  1.
  1000006    1    1    2  501    0 -0.38603748211E+02 -0.52737656740E+01 -0.86389583381E+02  0.36260339504E+03  0.35000000000E+03 0.  0.
 -1000006    1    1    2    0  502  0.83592573098E+01  0.67624333811E+01  0.75008011371E+02  0.35810865594E+03  0.35000000000E+03 0.  0.
       21    1    1    2  504  501  0.30244490901E+02 -0.14886677071E+01 -0.62772640369E+02  0.69694689470E+02  0.00000000000E+00 0.  1.
<scales pt_clust_1="13000.00000" pt_clust_2="13000.00000" pt_clust_3="30.28111"></scales>
<clustering>
<clus scale="   30.281">  2  5  1 -1</clus>
<clus scale="  350.629">  2  3  1 -1</clus>
<clus scale="  350.629">  1  3  2 -1</clus>
</clustering>
</event>
<event>
 6   2  0.3464723E-02  0.3603368E+03  0.7816531E-02  0.1058451E+00
        1   -1    0    0  501    0  0.00000000000E+00  0.00000000000E+00  0.20467317304E+04  0.20467317304E+04  0.00000000000E+00 0. -1.
       21   -1    0    0  504  503  0.00000000000E+00  0.00000000000E+00 -0.73277943147E+03  0.73277943147E+03  0.00000000000E+00 0. -1.
  1000006    1    1    2  501    0  0.15137430065E+03  0.16044715230E+03 -0.10151076937E+03  0.42598345493E+03  0.35000000000E+03 0.  0.
 -1000006    1    1    2    0  503  0.66537035076E+02 -0.51616567638E+02 -0.36455845029E+03  0.51234198614E+03  0.35000000000E+03 0.  0.
       21    1    1    2  504  502 -0.20786834823E+03 -0.30146063540E+02  0.34455808084E+03  0.40353228671E+03  0.00000000000E+00 0. -1.
        1    1    1    2  502    0 -0.10042987498E+02 -0.78684521123E+02  0.14354634377E+04  0.14376534341E+04  0.00000000000E+00 0. -1.
<scales pt_clust_1="13000.00000" pt_clust_2="13000.00000" pt_clust_3="227.92584" pt_clust_4="79.32286"></scales>
<clustering>
<clus scale="   79.323">  1  6  2 -1</clus>
<clus scale="  227.926">  1  5  2 -1</clus>
<clus scale="  360.337">  1  3  2 -1</clus>
<clus scale="  360.337">  2  3  1 -1</clus>
</clustering>
</event>
<event>
 6   2  0.3464723E-02  0.3788819E+03  0.7816531E-02  0.1051348E+00
       21   -1    0    0  502  503  0.00000000000E+00  0.00000000000E+00  0.10346415915E+03  0.10346415915E+03  0.00000000000E+00 0. -1.
        2   -1    0    0  504    0  0.00000000000E+00  0.00000000000E+00 -0.37617574166E+04  0.37617574166E+04  0.00000000000E+00 0.  1.
  1000006    1    1    2  501    0 -0.30908871903E+02  0.16171205974E+03 -0.78517383027E+03  0.87527372425E+03  0.35000000000E+03 0.  0.
 -1000006    1    1    2    0  503  0.10532541646E+03 -0.97534968234E+02 -0.57836487941E+03  0.69109510714E+03  0.35000000000E+03 0.  0.
       21    1    1    2  504  501 -0.21449265675E+02  0.25315664483E+02 -0.53385563031E+03  0.53488577087E+03  0.00000000000E+00 0. -1.
        2    1    1    2  502    0 -0.52967278887E+02 -0.89492755991E+02 -0.17608989175E+04  0.17639669735E+04  0.00000000000E+00 0.  1.
<scales pt_clust_1="13000.00000" pt_clust_2="13000.00000" pt_clust_3="33.18062" pt_clust_4="99.54515"></scales>
<clustering>
<clus scale="   33.181">  2  5  1 -1</clus>
<clus scale="   99.545">  2  6  1 -1</clus>
<clus scale="  378.882">  2  3  1 -1</clus>
<clus scale="  378.882">  1  3  2 -1</clus>
</clustering>
</event>
<event>
 4   0  0.3464723E-02  0.3630950E+03  0.7816531E-02  0.1057365E+00
       21   -1    0    0  503  502  0.00000000000E+00  0.00000000000E+00  0.93594131248E+03  0.93594131248E+03  0.00000000000E+00 0. -1.
       21   -1    0    0  501  503  0.00000000000E+00  0.00000000000E+00 -0.14372517647E+03  0.14372517647E+03  0.00000000000E+00 0. -1.
  1000006    1    1    2  501    0  0.36132280339E+02  0.89623920570E+02  0.31990649154E+03  0.48391957198E+03  0.35000000000E+03 0.  0.
 -1000006    1    1    2    0  502 -0.36132280339E+02 -0.89623920570E+02  0.47230964447E+03  0.59574691697E+03  0.35000000000E+03 0.  0.
<scales pt_clust_1="13000.00000" pt_clust_2="13000.00000"></scales>
<clustering>
<clus scale="  363.095">  2  3  1 -1</clus>
<clus scale="  363.095">  1  3  2 -1</clus>
</clustering>
</event>
<event>
 6   2  0.3464723E-02  0.3845643E+03  0.7816531E-02  0.1049260E+00
       21   -1    0    0  501  502  0.00000000000E+00  0.00000000000E+00  0.81288187828E+03  0.81288187828E+03  0.00000000000E+00 0.  1.
       21   -1    0    0  505  503  0.00000000000E+00  0.00000000000E+00 -0.32798326502E+03  0.32798326502E+03  0.00000000000E+00 0.  1.
  1000006    1    1    2  501    0 -0.55846109110E+02 -0.10713408463E+03  0.32547468051E+03  0.49298100130E+03  0.35000000000E+03 0.  0.
 -1000006    1    1    2    0  503  0.86002205303E+01  0.21202598640E+03  0.24846015410E+03  0.47881252164E+03  0.35000000000E+03 0.  0.
       21    1    1    2  504  502  0.13794910297E+02 -0.28013851526E+02  0.15668133233E+02  0.34936597235E+02  0.00000000000E+00 0. -1.
       21    1    1    2  505  504  0.33450978283E+02 -0.76878050244E+02 -0.10470435459E+03  0.13413502312E+03  0.00000000000E+00 0.  1.
<scales pt_clust_1="13000.00000" pt_clust_2="13000.00000" pt_clust_3="31.22620" pt_clust_4="84.42313"></scales>
<clustering>
<clus scale="   31.226">  1  5  2 -1</clus>
<clus scale="   84.423">  2  6  1 -1</clus>
<clus scale="  384.564">  1  3  2 -1</clus>
<clus scale="  384.564">  1  3  2 -1</clus>
</clustering>
</event>
<event>
 6   2  0.3464723E-02  0.3710799E+03  0.7816531E-02  0.1054281E+00
       21   -1    0    0  504  503  0.00000000000E+00  0.00000000000E+00  0.11733646267E+04  0.11733646267E+04  0.00000000000E+00 0.  1.
       -4   -1    0    0    0  501  0.00000000000E+00  0.00000000000E+00 -0.41677871193E+03  0.41677871193E+03  0.00000000000E+00 0.  1.
  1000006    1    1    2  502    0 -0.35225649573E+02  0.18466995650E+03  0.31015426343E+03  0.50402331925E+03  0.35000000000E+03 0.  0.
 -1000006    1    1    2    0  503  0.96191727532E+02 -0.23588566487E+02  0.58257180145E+03  0.68680359111E+03  0.35000000000E+03 0.  0.
       21    1    1    2  504  501  0.48901545265E+02 -0.24590231399E+02  0.94777650356E+02  0.10944790366E+03  0.00000000000E+00 0.  1.
       -4    1    1    2    0  502 -0.10986762322E+03 -0.13649115861E+03 -0.23091780044E+03  0.28986852464E+03  0.00000000000E+00 0.  1.
<scales pt_clust_1="13000.00000" pt_clust_2="13000.00000" pt_clust_3="54.73610" pt_clust_4="174.90580"></scales>
<clustering>
<clus scale="   54.736">  1  5  2 -1</clus>
<clus scale="  174.906">  2  6  1 -1</clus>
<clus scale="  371.080">  2  3  1 -1</clus>
<clus scale="  371.080">  1  3  2 -1</clus>
</clustering>
</event>
<event>
 5   1  0.3464723E-02  0.3647496E+03  0.7816531E-02  0.1056719E+00
       21   -1    0    0  501  503  0.00000000000E+00  0.00000000000E+00  0.20867026808E+03  0.20867026808E+03  0.00000000000E+00 0. -1.
        1   -1    0    0  503    0  0.00000000000E+00  0.00000000000E+00 -0.13505436385E+04  0.13505436385E+04  0.00000000000E+00 0. -1.
  1000006    1    1    2  501    0  0.82804540558E+02  0.18041352673E+02 -0.17280985739E+03  0.39943125711E+03  0.35000000000E+03 0.  0.
 -1000006    1    1    2    0  502 -0.12543600538E+03 -0.11801212237E+02 -0.27061497138E+03  0.46000643777E+03  0.35000000000E+03 0.  0.
        1    1    1    2  502    0  0.42631464824E+02 -0.62401404363E+01 -0.69844854159E+03  0.69977621165E+03  0.00000000000E+00 0. -1.
<scales pt_clust_1="13000.00000" pt_clust_2="13000.00000" pt_clust_3="43.08574"></scales>
<clustering>
<clus scale="   43.086">  2  5  1 -1</clus>
<clus scale="  364.750">  1  3  2 -1</clus>
<clus scale="  364.750">  1  3  2 -1</clus>
</clustering>
</event>
<event>
 6   2  0.3464723E-02  0.3900449E+03  0.7816531E-02  0.1047282E+00
       21   -1    0    0  502  503  0.00000000000E+00  0.00000000000E+00  0.26572418613E+03  0.26572418613E+03  0.00000000000E+00 0.  1.
        2   -1    0    0  504    0  0.00000000000E+00  0.00000000000E+00 -0.15271534376E+04  0.15271534376E+04  0.00000000000E+00 0.  1.
  1000006    1    1    2  501    0 -0.11523053073E+03 -0.96093295036E+02 -0.24901241740E+03  0.45499360499E+03  0.35000000000E+03 0.  0.
 -1000006    1    1    2    0  503  0.13661178639E+03  0.12892278791E+03 -0.88638849647E+02  0.40698981693E+03  0.35000000000E+03 0.  0.
       21    1    1    2  504  501 -0.39213159177E+02 -0.62925793642E+02 -0.74823106120E+03  0.75189563657E+03  0.00000000000E+00 0.  1.
        2    1    1    2  502    0  0.17831903524E+02  0.30096300771E+02 -0.17554692322E+03  0.17899856523E+03  0.00000000000E+00 0.  1.
<scales pt_clust_1="13000.00000" pt_clust_2="13000.00000" pt_clust_3="54.71258" pt_clust_4="34.98234"></scales>
<clustering>
<clus scale="   34.982">  2  6  1 -1</clus>
<clus scale="   54.713">  2  5  1 -1</clus>
<clus scale="  390.045">  2  3  1 -1</clus>
<clus scale="  390.045">  1  3  2 -1</clus>
</clustering>
</event>
<event>
 4   0  0.3464723E-02  0.3609734E+03  0.7816531E-02  0.1058199E+00
       21   -1    0    0  503  502  0.00000000000E+00  0.00000000000E+00  0.95128301407E+03  0.95128301407E+03  0.00000000000E+00 0. -1.
       21   -1    0    0  501  503  0.00000000000E+00  0.00000000000E+00 -0.13858923743E+03  0.13858923743E+03  0.00000000000E+00 0. -1.
  1000006    1    1    2  501    0  0.74194318719E+02 -0.47926888204E+02  0.34753110754E+03  0.50107849111E+03  0.35000000000E+03 0.  0.
 -1000006    1    1    2    0  502 -0.74194318719E+02  0.47926888204E+02  0.46516266910E+03  0.58879376039E+03  0.35000000000E+03 0.  0.
<scales pt_clust_1="13000.00000" pt_clust_2="13000.00000"></scales>
<clustering>
<clus scale="  360.973">  2  3  1 -1</clus>
<clus scale="  360.973">  1  3  2 -1</clus>
</clustering>
</event>
<event>
 5   1  0.3464723E-02  0.3689051E+03  0.7816531E-02  0.1055112E+00
       21   -1    0    0  501  502  0.00000000000E+00  0.00000000000E+00  0.57882920071E+03  0.57882920071E+03  0.00000000000E+00 0. -1.
       21   -1    0    0  502  503  0.00000000000E+00  0.00000000000E+00 -0.12570952516E+04  0.12570952516E+04  0.00000000000E+00 0.  1.
  1000006    1    1    2  501    0  0.14406610794E+03  0.90498106736E+02  0.35307963062E+03  0.52546186954E+03  0.35000000000E+03 0.  0.
 -1000006    1    1    2    0  504  0.62324106505E+01  0.11760483624E+03 -0.16064906780E+03  0.40271312796E+03  0.35000000000E+03 0.  0.
       21    1    1    2  504  503 -0.15029851859E+03 -0.20810294298E+03 -0.87069661368E+03  0.90774945477E+03  0.00000000000E+00 0.  1.
<scales pt_clust_1="13000.00000" pt_clust_2="13000.00000" pt_clust_3="256.70310"></scales>
<clustering>
<clus scale="  256.703">  2  5  1 -1</clus>
<clus scale="  368.905">  2  4  1 -1</clus>
<clus scale="  368.905">  1  3  2 -1</clus>
</clustering>
</event>
<event>
 4   0  0.3464723E-02  0.3988058E+03  0.7816531E-02  0.1044194E+00
       21   -1    0    0  503  502  0.00000000000E+00  0.00000000000E+00  0.13351739431E+04  0.13351739431E+04  0.00000000000E+00 0. -1.
       21   -1    0    0  501  503  0.00000000000E+00  0.00000000000E+00 -0.13204351374E+03  0.13204351374E+03  0.00000000000E+00 0. -1.
  1000006    1    1    2  501    0  0.18903396547E+03 -0.28499306439E+02  0.37205891224E+03  0.54541166539E+03  0.35000000000E+03 0.  0.
 -1000006    1    1    2    0  502 -0.18903396547E+03  0.28499306439E+02  0.83107151708E+03  0.92180579141E+03  0.35000000000E+03 0.  0.
<scales pt_clust_1="13000.00000" pt_clust_2="13000.00000"></scales>
<clustering>
<clus scale="  398.806">  2  3  1 -1</clus>
<clus scale="  398.806">  1  3  2 -1</clus>
</clustering>
</event>
<event>
 6   2  0.3464723E-02  0.4643662E+03  0.7816531E-02  0.1023522E+00
        2   -1    0    0  503    0  0.00000000000E+00  0.00000000000E+00  0.18240954790E+04  0.18240954790E+04  0.00000000000E+00 0.  1.
        2   -1    0    0  501    0  0.00000000000E+00  0.00000000000E+00 -0.69033123518E+03  0.69033123518E+03  0.00000000000E+00 0.  1.
  1000006    1    1    2  501    0  0.29288948352E+03 -0.60119578960E+02 -0.20635835746E+03  0.50446247138E+03  0.35000000000E+03 0.  0.
 -1000006    1    1    2    0  502 -0.27311407153E+03 -0.22952140259E+03  0.12861838774E+03  0.51605625660E+03  0.35000000000E+03 0.  0.
        2    1    1    2  502    0 -0.27437103578E+02  0.93025823189E+02  0.12814245700E+04  0.12850896961E+04  0.00000000000E+00 0.  1.
        2    1    1    2  503    0  0.76616915807E+01  0.19661515836E+03 -0.69920356488E+02  0.20881829007E+03  0.00000000000E+00 0.  1.
<scales pt_clust_1="13000.00000" pt_clust_2="13000.00000" pt_clust_3="96.98762" pt_clust_4="208.60165"></scales>
<clustering>
<clus scale="   96.988">  1  5  2 -1</clus>
<clus scale="  208.602">  2  6  1 -1</clus>
<clus scale="  464.366">  1  4  2 -1</clus>
<clus scale="  464.366">  1  3  2 -1</clus>
</clustering>
</event>
<event>
 5   1  0.3464723E-02  0.3770471E+03  0.7816531E-02  0.1052031E+00
       21   -1    0    0  504  502  0.00000000000E+00  0.00000000000E+00  0.19879327566E+03  0.19879327566E+03  0.00000000000E+00 0.  1.
       21   -1    0    0  501  503  0.00000000000E+00  0.00000000000E+00 -0.25406907065E+04  0.25406907065E+04  0.00000000000E+00 0.  1.
  1000006    1    1    2  501    0  0.12786495255E+03  0.63823460453E+02 -0.22829259894E+04  0.23140168438E+04  0.35000000000E+03 0.  0.
 -1000006    1    1    2    0  502 -0.11025782798E+03 -0.37231267421E+02 -0.91386885438E+02  0.37999278774E+03  0.35000000000E+03 0.  0.
       21    1    1    2  504  503 -0.17607124572E+02 -0.26592193032E+02  0.32415443944E+02  0.45474350705E+02  0.00000000000E+00 0.  1.
<scales pt_clust_1="13000.00000" pt_clust_2="13000.00000" pt_clust_3="31.89288"></scales>
<clustering>
<clus scale="   31.893">  1  5  2 -1</clus>
<clus scale="  377.047">  2  3  1 -1</clus>
<clus scale="  377.047">  1  3  2 -1</clus>
</clustering>
</event>
<event>
 5   1  0.3464723E-02  0.3643634E+03  0.7816531E-02  0.1056869E+00
       21   -1    0    0  501  502  0.00000000000E+00  0.00000000000E+00  0.16187473258E+04  0.16187473258E+04  0.00000000000E+00 0.  1.
       21   -1    0    0  502  503  0.00000000000E+00  0.00000000000E+00 -0.11246121939E+03  0.11246121939E+03  0.00000000000E+00 0.  1.
  1000006    1    1    2  501    0  0.89220545136E+02  0.91437858306E+02  0.87939798118E+03  0.95507172344E+03  0.35000000000E+03 0.  0.
 -1000006    1    1    2    0  504  0.25456151502E+01 -0.81384537105E+02  0.54459221526E+03  0.65246502125E+03  0.35000000000E+03 0.  0.
       21    1    1    2  504  503 -0.91766160286E+02 -0.10053321201E+02  0.82295909954E+02  0.12367180049E+03  0.00000000000E+00 0. -1.
<scales pt_clust_1="13000.00000" pt_clust_2="13000.00000" pt_clust_3="92.31521"></scales>
<clustering>
<clus scale="   92.315">  2  5  1 -1</clus>
<clus scale="  364.363">  1  3  2 -1</clus>
<clus scale="  364.363">  1  3  2 -1</clus>
</clustering>
</event>
<event>
 6   2  0.3464723E-02  0.8014789E+03  0.7816531E-02  0.9557879E-01
       21   -1    0    0  504  503  0.00000000000E+00  0.00000000000E+00  0.37197514412E+03  0.37197514412E+03  0.00000000000E+00 0.  1.
        2   -1    0    0  501    0  0.00000000000E+00  0.00000000000E+00 -0.35540527418E+04  0.35540527418E+04  0.00000000000E+00 0. -1.
  1000006    1    1    2  501    0  0.31702174661E+03  0.70783619145E+03 -0.89105419232E+03  0.12320764730E+04  0.35000000000E+03 0.  0.
 -1000006    1    1    2    0  503 -0.61404273488E+03 -0.39605078283E+03 -0.79592214254E+03  0.11357362193E+04  0.35000000000E+03 0.  0.
       21    1    1    2  504  502  0.20601382702E+02 -0.44691741773E+02 -0.10517204929E+03  0.11611601399E+03  0.00000000000E+00 0.  1.
        2    1    1    2  502    0  0.27641960557E+03 -0.26709366684E+03 -0.13899292135E+04  0.14420991796E+04  0.00000000000E+00 0. -1.
<scales pt_clust_1="13000.00000" pt_clust_2="13000.00000" pt_clust_3="30.51940" pt_clust_4="438.98383"></scales>
<clustering>
<clus scale="   30.519">  5  6 -1 -1</clus>
<clus scale="  438.984">  2  5  1 -1</clus>
<clus scale="  801.479">  2  3  1 -1</clus>
<clus scale="  801.479">  1  3  2 -1</clus>
</clustering>
</event>
<event>
 4   0  0.3464723E-02  0.3811100E+03  0.7816531E-02  0.1050524E+00
       21   -1    0    0  503  502  0.00000000000E+00  0.00000000000E+00  0.22628970928E+04  0.22628970928E+04  0.00000000000E+00 0.  1.
       21   -1    0    0  501  503  0.00000000000E+00  0.00000000000E+00 -0.85358432766E+02  0.85358432766E+02  0.00000000000E+00 0.  1.
  1000006    1    1    2  501    0  0.98269180141E+02 -0.11440284538E+03  0.50400054140E+03  0.63187133859E+03  0.35000000000E+03 0.  0.
 -1000006    1    1    2    0  502 -0.98269180141E+02  0.11440284538E+03  0.16735381187E+04  0.17163841870E+04  0.35000000000E+03 0.  0.
<scales pt_clust_1="13000.00000" pt_clust_2="13000.00000"></scales>
<clustering>
<clus scale="  381.110">  2  3  1 -1</clus>
<clus scale="  381.110">  1  3  2 -1</clus>
</clustering>
</event>
<event>
 4   0  0.3464723E-02  0.3871175E+03  0.7816531E-02  0.1048334E+00
       21   -1    0    0  501  502  0.00000000000E+00  0.00000000000E+00  0.43260371384E+03  0.43260371384E+03  0.00000000000E+00 0. -1.
       21   -1    0    0  502  503  0.00000000000E+00  0.00000000000E+00 -0.61129283280E+03  0.61129283280E+03  0.00000000000E+00 0. -1.
  1000006    1    1    2  501    0  0.16445006983E+03 -0.17779819311E+02  0.25423435841E+03  0.46313611006E+03  0.35000000000E+03 0.  0.
 -1000006    1    1    2    0  503 -0.16445006983E+03  0.17779819311E+02 -0.43292347737E+03  0.58076043658E+03  0.35000000000E+03 0.  0.
<scales pt_clust_1="13000.00000" pt_clust_2="13000.00000"></scales>
<clustering>
<clus scale="  387.117">  1  3  2 -1</clus>
<clus scale="  387.117">  1  3  2 -1</clus>
</clustering>
</event>
<event>
 6   2  0.3464723E-02  0.4222650E+03  0.7816531E-02  0.1036332E+00
       21   -1    0    0  504  502  0.00000000000E+00  0.00000000000E+00  0.17959518205E+04  0.17959518205E+04  0.00000000000E+00 0.  1.
       21   -1    0    0  502  503  0.00000000000E+00  0.00000000000E+00 -0.19655847347E+03  0.19655847347E+03  0.00000000000E+00 0.  1.
  1000006    1    1    2  501    0 -0.23543490493E+03 -0.51926739458E+02  0.92347290204E+03  0.10165766973E+04  0.35000000000E+03 0.  0.
 -1000006    1    1    2    0  505  0.22577481776E+03 -0.38171928469E+02  0.60610342753E+03  0.73640527519E+03  0.35000000000E+03 0.  0.
       21    1    1    2  504  501 -0.33000284340E+02  0.25866499153E+02  0.13324373014E+03  0.13968531121E+03  0.00000000000E+00 0.  1.
       21    1    1    2  505  503  0.42660371509E+02  0.64232168774E+02 -0.63426712717E+02  0.99843010215E+02  0.00000000000E+00 0.  1.
<scales pt_clust_1="13000.00000" pt_clust_2="13000.00000" pt_clust_3="41.92964" pt_clust_4="77.14569"></scales>
<clustering>
<clus scale="   41.930">  1  5  2 -1</clus>
<clus scale="   77.146">  2  6  1 -1</clus>
<clus scale="  422.265">  1  3  2 -1</clus>
<clus scale="  422.265">  1  3  2 -1</clus>
</clustering>
</event>
<event>
 4   0  0.3464723E-02  0.3639405E+03  0.7816531E-02  0.1057034E+00
       21   -1    0    0  501  502  0.00000000000E+00  0.00000000000E+00  0.15300440255E+04  0.15300440255E+04  0.00000000000E+00 0. -1.
       21   -1    0    0  502  503  0.00000000000E+00  0.00000000000E+00 -0.12555538197E+03  0.12555538197E+03  0.00000000000E+00 0. -1.
  1000006    1    1    2  501    0 -0.61696182544E+02 -0.78398038024E+02  0.11635303400E+04  0.12191207993E+04  0.35000000000E+03 0.  0.
 -1000006    1    1    2    0  503  0.61696182544E+02  0.78398038024E+02  0.24095830353E+03  0.43647860812E+03  0.35000000000E+03 0.  0.
<scales pt_clust_1="13000.00000" pt_clust_2="13000.00000"></scales>
<clustering>
<clus scale="  363.940">  1  3  2 -1</clus>
<clus scale="  363.940">  1  3  2 -1</clus>
</clustering>
</event>
<event>
 6   2  0.3464723E-02  0.5033133E+03  0.7816531E-02  0.1012918E+00
       21   -1    0    0  501  503  0.00000000000E+00  0.00000000000E+00  0.70155354504E+03  0.70155354504E+03  0.00000000000E+00 0. -1.
        2   -1    0    0  504    0  0.00000000000E+00  0.00000000000E+00 -0.25336498142E+04  0.25336498142E+04  0.00000000000E+00 0. -1.
  1000006    1    1    2  501    0  0.24814394308E+03  0.27711989784E+03  0.26499831613E+03  0.57540851733E+03  0.35000000000E+03 0.  0.
 -1000006    1    1    2    0  502 -0.14779555251E+03 -0.32430716680E+03  0.43405590915E+02  0.50140074701E+03  0.35000000000E+03 0.  0.
       21    1    1    2  504  503 -0.15855822327E+02  0.48901604020E+02 -0.73650614166E+02  0.89817520253E+02  0.00000000000E+00 0. -1.
        2    1    1    2  502    0 -0.84492568236E+02 -0.17143350642E+01 -0.20668495620E+04  0.20685765746E+04  0.00000000000E+00 0. -1.
<scales pt_clust_1="13000.00000" pt_clust_2="13000.00000" pt_clust_3="51.40792" pt_clust_4="105.54399"></scales>
<clustering>
<clus scale="   51.408">  2  5  1 -1</clus>
<clus scale="  105.544">  2  6  1 -1</clus>
<clus scale="  503.313">  2  4  1 -1</clus>
<clus scale="  503.313">  1  3  2 -1</clus>
</clustering>
</event>
<event>
 6   2  0.3464723E-02  0.3828074E+03  0.7816531E-02  0.1049901E+00
       21   -1    0    0  505  502  0.00000000000E+00  0.00000000000E+00  0.93079264588E+03  0.93079264588E+03  0.00000000000E+00 0. -1.
       21   -1    0    0  501  503  0.00000000000E+00  0.00000000000E+00 -0.36588659389E+03  0.36588659389E+03  0.00000000000E+00 0. -1.
  1000006    1    1    2  501    0 -0.13986930393E+03 -0.89315552316E+02  0.13109624507E+03  0.40893387673E+03  0.35000000000E+03 0.  0.
 -1000006    1    1    2    0  502  0.17553160850E+02  0.17025277847E+03  0.51183492369E+03  0.64324887186E+03  0.35000000000E+03 0.  0.
       21    1    1    2  504  503 -0.17898676453E+02 -0.52287923204E+02 -0.84805358486E+02  0.10122419849E+03  0.00000000000E+00 0. -1.
       21    1    1    2  505  504  0.14021481953E+03 -0.28649302948E+02  0.67802417168E+01  0.14327229269E+03  0.00000000000E+00 0. -1.
<scales pt_clust_1="13000.00000" pt_clust_2="13000.00000" pt_clust_3="55.26653" pt_clust_4="142.00705"></scales>
<clustering>
<clus scale="   55.267">  2  5  1 -1</clus>
<clus scale="  142.007">  2  6  1 -1</clus>
<clus scale="  382.807">  2  3  1 -1</clus>
<clus scale="  382.807">  1  3  2 -1</clus>
</clustering>
</event>
<event>
 5   1  0.3464723E-02  0.4865552E+03  0.7816531E-02  0.1017349E+00
       21   -1    0    0  501  503  0.00000000000E+00  0.00000000000E+00  0.40704909779E+03  0.40704909779E+03  0.00000000000E+00 0. -1.
       -1   -1    0    0    0  501  0.00000000000E+00  0.00000000000E+00 -0.95255887613E+03  0.95255887613E+03  0.00000000000E+00 0. -1.
  1000006    1    1    2  502    0 -0.30796542251E+03 -0.16989912507E+03 -0.56051906104E+03  0.74859203306E+03  0.35000000000E+03 0.  0.
 -1000006    1    1    2    0  503  0.30381460592E+03  0.13935199696E+03  0.12247014461E+03  0.49922062272E+03  0.35000000000E+03 0.  0.
       -1    1    1    2    0  502  0.41508165855E+01  0.30547128114E+02 -0.10746086191E+03  0.11179531814E+03  0.00000000000E+00 0. -1.
<scales pt_clust_1="13000.00000" pt_clust_2="13000.00000" pt_clust_3="30.82785"></scales>
<clustering>
<clus scale="   30.828">  2  5  1 -1</clus>
<clus scale="  486.555">  2  3  1 -1</clus>
<clus scale="  486.555">  1  3  2 -1</clus>
</clustering>
</event>
<event>
 5   1  0.3464723E-02  0.4407315E+03  0.7816531E-02  0.1030523E+00
        2   -1    0    0  502    0  0.00000000000E+00  0.00000000000E+00  0.94601035482E+03  0.94601035482E+03  0.00000000000E+00 0.  1.
       -2   -1    0    0    0  501  0.00000000000E+00  0.00000000000E+00 -0.25535709198E+03  0.25535709198E+03  0.00000000000E+00 0. -1.
  1000006    1    1    2  502    0 -0.16828886811E+03 -0.22950711722E+03  0.14227462813E+03  0.47300817095E+03  0.35000000000E+03 0.  0.
 -1000006    1    1    2    0  503  0.17572519953E+03  0.19221631637E+03  0.52897928914E+03  0.68567160242E+03  0.35000000000E+03 0.  0.
       21    1    1    2  503  501 -0.74363314257E+01  0.37290800848E+02  0.19399345571E+02  0.42687673415E+02  0.00000000000E+00 0.  1.
<scales pt_clust_1="13000.00000" pt_clust_2="13000.00000" pt_clust_3="38.02503"></scales>
<clustering>
<clus scale="   38.025">  2  5  1 -1</clus>
<clus scale="  723.195">  3  4 -1 -1</clus>
<clus scale="  440.731">  1  3  2 -1</clus>
</clustering>
</event>
<event>
 6   2  0.3464723E-02  0.4324709E+03  0.7816531E-02  0.1033082E+00
       21   -1    0    0  501  502  0.00000000000E+00  0.00000000000E+00  0.12409896338E+04  0.12409896338E+04  0.00000000000E+00 0.  1.
       21   -1    0    0  504  503  0.00000000000E+00  0.00000000000E+00 -0.29591979307E+03  0.29591979307E+03  0.00000000000E+00 0.  1.
  1000006    1    1    2  501    0 -0.27102370051E+03  0.13851376175E+03  0.37797979476E+03  0.59833822683E+03  0.35000000000E+03 0.  0.
 -1000006    1    1    2    0  503  0.22581521748E+03  0.20016366776E+02  0.26331246902E+03  0.49318011287E+03  0.35000000000E+03 0.  0.
       21    1    1    2  504  505  0.40514252118E+02  0.61074646037E+01 -0.44281750926E+02  0.60328925182E+02  0.00000000000E+00 0. -1.
       21    1    1    2  505  502  0.46942309073E+01 -0.16463759313E+03  0.34805932782E+03  0.38506216194E+03  0.00000000000E+00 0.  1.
<scales pt_clust_1="13000.00000" pt_clust_2="13000.00000" pt_clust_3="40.97201" pt_clust_4="164.35758"></scales>
<clustering>
<clus scale="   40.972">  2  5  1 -1</clus>
<clus scale="  164.358">  1  6  2 -1</clus>
<clus scale="  432.471">  1  3  2 -1</clus>
<clus scale="  432.471">  1  3  2 -1</clus>
</clustering>
</event>
<event>
 5   1  0.3464723E-02  0.3642612E+03  0.7816531E-02  0.1056909E+00
       21   -1    0    0  502  503  0.00000000000E+00  0.00000000000E+00  0.27589898692E+03  0.27589898692E+03  0.00000000000E+00 0.  1.
        1   -1    0    0  501    0  0.00000000000E+00  0.00000000000E+00 -0.14030200417E+04  0.14030200417E+04  0.00000000000E+00 0.  1.
  1000006    1    1    2  501    0  0.65023312651E+02 -0.18120143350E+03 -0.10493530567E+04  0.11228106823E+04  0.35000000000E+03 0.  0.
 -1000006    1    1    2    0  503 -0.29372788677E+02  0.83616314039E+02  0.77516494118E+02  0.36927395731E+03  0.35000000000E+03 0.  0.
        1    1    1    2  502    0 -0.35650523974E+02  0.97585119460E+02 -0.15528449222E+03  0.18683438903E+03  0.00000000000E+00 0.  1.
<scales pt_clust_1="13000.00000" pt_clust_2="13000.00000" pt_clust_3="103.89329"></scales>
<clustering>
<clus scale="  103.893">  2  5  1 -1</clus>
<clus scale="  364.261">  2  3  1 -1</clus>
<clus scale="  364.261">  1  3  2 -1</clus>
</clustering>
</event>
<event>
 4   0  0.3464723E-02  0.3981339E+03  0.7816531E-02  0.1044428E+00
       21   -1    0    0  503  502  0.00000000000E+00  0.00000000000E+00  0.27034246152E+03  0.27034246152E+03  0.00000000000E+00 0.  1.
       21   -1    0    0  501  503  0.00000000000E+00  0.00000000000E+00 -0.69778967492E+03  0.69778967492E+03  0.00000000000E+00 0.  1.
  1000006    1    1    2  501    0  0.15416002593E+03 -0.11065855624E+03 -0.40718573727E+03  0.56948297104E+03  0.35000000000E+03 0.  0.
 -1000006    1    1    2    0  502 -0.15416002593E+03  0.11065855624E+03 -0.20261476133E+02  0.39864916541E+03  0.35000000000E+03 0.  0.
<scales pt_clust_1="13000.00000" pt_clust_2="13000.00000"></scales>
<clustering>
<clus scale="  398.134">  2  3  1 -1</clus>
<clus scale="  398.134">  1  3  2 -1</clus>
</clustering>
</event>
<event>
 5   1  0.3464723E-02  0.3731166E+03  0.7816531E-02  0.1053508E+00
       21   -1    0    0  504  502  0.00000000000E+00  0.00000000000E+00  0.13839018926E+03  0.13839018926E+03  0.00000000000E+00 0. -1.
       21   -1    0    0  501  503  0.00000000000E+00  0.00000000000E+00 -0.17050938681E+04  0.17050938681E+04  0.00000000000E+00 0. -1.
  1000006    1    1    2  501    0 -0.18090995567E+03 -0.36664029936E+02 -0.71637200250E+03  0.81838958272E+03  0.35000000000E+03 0.  0.
 -1000006    1    1    2    0  502  0.64429461894E+02 -0.11676410223E+03 -0.62509545301E+03  0.72871759722E+03  0.35000000000E+03 0.  0.
       21    1    1    2  504  503  0.11648049377E+03  0.15342813216E+03 -0.22523622339E+03  0.29637687746E+03  0.00000000000E+00 0. -1.
<scales pt_clust_1="13000.00000" pt_clust_2="13000.00000" pt_clust_3="192.63410"></scales>
<clustering>
<clus scale="  192.634">  1  5  2 -1</clus>
<clus scale="  373.117">  2  3  1 -1</clus>
<clus scale="  373.117">  1  3  2 -1</clus>
</clustering>
</event>
<event>
 6   2  0.3464723E-02  0.4366561E+03  0.7816531E-02  0.1031778E+00
        2   -1    0    0  503    0  0.00000000000E+00  0.00000000000E+00  0.14568924129E+04  0.14568924129E+04  0.00000000000E+00 0. -1.
       21   -1    0    0  504  503  0.00000000000E+00  0.00000000000E+00 -0.23994664361E+03  0.23994664361E+03  0.00000000000E+00 0.  1.
  1000006    1    1    2  501    0 -0.13724550624E+03  0.19334468157E+03  0.33724934244E+03  0.54079165476E+03  0.35000000000E+03 0.  0.
 -1000006    1    1    2    0  502  0.65290168831E+02 -0.30693534308E+03  0.65032505496E+03  0.80243055032E+03  0.35000000000E+03 0.  0.
       21    1    1    2  504  501  0.29803793612E+02  0.15548070330E+02 -0.46754950197E+02  0.57585015174E+02  0.00000000000E+00 0.  1.
        2    1    1    2  502    0  0.42151543802E+02  0.98042591184E+02  0.27612632208E+03  0.29603183626E+03  0.00000000000E+00 0. -1.
<scales pt_clust_1="13000.00000" pt_clust_2="13000.00000" pt_clust_3="33.61560" pt_clust_4="108.10663"></scales>
<clustering>
<clus scale="   33.616">  2  5  1 -1</clus>
<clus scale="  108.107">  1  6  2 -1</clus>
<clus scale="  436.656">  2  3  1 -1</clus>
<clus scale="  436.656">  2  3  1 -1</clus>
</clustering>
</event>
<event>
 4   0  0.3464723E-02  0.3805202E+03  0.7816531E-02  0.1050742E+00
       21   -1    0    0  501  502  0.00000000000E+00  0.00000000000E+00  0.90483550186E+02  0.90483550186E+02  0.00000000000E+00 0. -1.
       21   -1    0    0  502  503  0.00000000000E+00  0.00000000000E+00 -0.17864073142E+04  0.17864073142E+04  0.00000000000E+00 0. -1.
  1000006    1    1    2  501    0 -0.11802719472E+03  0.91461685039E+02 -0.54501456009E+03  0.66470785255E+03  0.35000000000E+03 0.  0.
 -1000006    1    1    2    0  503  0.11802719472E+03 -0.91461685039E+02 -0.11509092039E+04  0.12121830119E+04  0.35000000000E+03 0.  0.
<scales pt_clust_1="13000.00000" pt_clust_2="13000.00000"></scales>
<clustering>
<clus scale="  380.520">  1  3  2 -1</clus>
<clus scale="  380.520">  1  3  2 -1</clus>
</clustering>
</event>
<event>
 6   2  0.3464723E-02  0.5628740E+03  0.7816531E-02  0.9985573E-01
       21   -1    0    0  505  502  0.00000000000E+00  0.00000000000E+00  0.10551653696E+04  0.10551653696E+04  0.00000000000E+00 0. -1.
       21   -1    0    0  504  503  0.00000000000E+00  0.00000000000E+00 -0.47918247041E+03  0.47918247041E+03  0.00000000000E+00 0.  1.
  1000006    1    1    2  501    0  0.21300026811E+02  0.41178546024E+03  0.41586048007E+03  0.68224694598E+03  0.35000000000E+03 0.  0.
 -1000006    1    1    2    0  503 -0.18709832318E+02 -0.47179981692E+03 -0.23609645467E+02  0.58821980622E+03  0.35000000000E+03 0.  0.
       21    1    1    2  504  502 -0.21161410605E+02  0.33274341763E+02 -0.28824921124E+02  0.48845298611E+02  0.00000000000E+00 0.  1.
       21    1    1    2  505  501  0.18571216112E+02  0.26740014910E+02  0.21255698569E+03  0.21503578918E+03  0.00000000000E+00 0. -1.
<scales pt_clust_1="13000.00000" pt_clust_2="13000.00000" pt_clust_3="39.58482" pt_clust_4="32.55639"></scales>
<clustering>
<clus scale="   32.556">  1  6  2 -1</clus>
<clus scale="   39.585">  2  5  1 -1</clus>
<clus scale="  562.874">  1  3  2 -1</clus>
<clus scale="  562.874">  1  3  2 -1</clus>
</clustering>
</event>
<event>
 6   2  0.3464723E-02  0.3567151E+03  0.7816531E-02  0.1059892E+00
       21   -1    0    0  505  502  0.00000000000E+00  0.00000000000E+00  0.13211776721E+04  0.13211776721E+04  0.00000000000E+00 0.  1.
       21   -1    0    0  501  503  0.00000000000E+00  0.00000000000E+00 -0.24186292515E+03  0.24186292515E+03  0.00000000000E+00 0.  1.
  1000006    1    1    2  501    0  0.55291303805E+02  0.10697251840E+03  0.94379598783E+02  0.38197873846E+03  0.35000000000E+03 0.  0.
 -1000006    1    1    2    0  502 -0.10265253082E+03 -0.27784252059E+02  0.84457644159E+03  0.92039060862E+03  0.35000000000E+03 0.  0.
       21    1    1    2  504  503 -0.13860001795E+02 -0.95896085285E+02 -0.10060483677E+02  0.97413408494E+02  0.00000000000E+00 0. -1.
       21    1    1    2  505  504  0.61221228811E+02  0.16707818940E+02  0.15041919030E+03  0.16325784172E+03  0.00000000000E+00 0.  1.
<scales pt_clust_1="13000.00000" pt_clust_2="13000.00000" pt_clust_3="95.96855" pt_clust_4="63.46015"></scales>
<clustering>
<clus scale="   63.460">  1  6  2 -1</clus>
<clus scale="   95.969">  2  5  1 -1</clus>
<clus scale="  356.715">  2  3  1 -1</clus>
<clus scale="  356.715">  1  3  2 -1</clus>
</clustering>
</event>
<event>
 5   1  0.3464723E-02  0.4936466E+03  0.7816531E-02  0.1015451E+00
       21   -1    0    0  504  502  0.00000000000E+00  0.00000000000E+00  0.16816843764E+04  0.16816843764E+04  0.00000000000E+00 0.  1.
       21   -1    0    0  501  503  0.00000000000E+00  0.00000000000E+00 -0.39239480771E+03  0.39239480771E+03  0.00000000000E+00 0. -1.
  1000006    1    1    2  501    0 -0.33094237846E+03  0.21205292179E+02 -0.45339866455E+02  0.48428114331E+03  0.35000000000E+03 0.  0.
 -1000006    1    1    2    0  502  0.38736313770E+03 -0.33073047855E+02  0.41333344851E+03  0.66669975746E+03  0.35000000000E+03 0.  0.
       21    1    1    2  504  503 -0.56420759237E+02  0.11867755675E+02  0.92129598662E+03  0.92309828331E+03  0.00000000000E+00 0.  1.
<scales pt_clust_1="13000.00000" pt_clust_2="13000.00000" pt_clust_3="57.65540"></scales>
<clustering>
<clus scale="   57.655">  1  5  2 -1</clus>
<clus scale="  493.647">  2  3  1 -1</clus>
<clus scale="  493.647">  1  3  2 -1</clus>
</clustering>
</event>
<event>
 5   1  0.3464723E-02  0.3850306E+03  0.7816531E-02  0.1049090E+00
       21   -1    0    0  501  502  0.00000000000E+00  0.00000000000E+00  0.21513723018E+03  0.21513723018E+03  0.00000000000E+00 0.  1.
       21   -1    0    0  504  503  0.00000000000E+00  0.00000000000E+00 -0.24249562778E+04  0.24249562778E+04  0.00000000000E+00 0.  1.
  1000006    1    1    2  501    0 -0.42070578568E+02  0.14936125198E+03 -0.27455184832E+02  0.38383916469E+03  0.35000000000E+03 0.  0.
 -1000006    1    1    2    0  503  0.16478028780E+03 -0.14915643974E+03 -0.12771954619E+04  0.13428061791E+04  0.35000000000E+03 0.  0.
       21    1    1    2  504  502 -0.12270970923E+03 -0.20481223841E+00 -0.90516840089E+03  0.91344816419E+03  0.00000000000E+00 0.  1.
<scales pt_clust_1="13000.00000" pt_clust_2="13000.00000" pt_clust_3="122.70988"></scales>
<clustering>
<clus scale="  122.710">  2  5  1 -1</clus>
<clus scale="  385.031">  2  4  1 -1</clus>
<clus scale="  385.031">  1  3  2 -1</clus>
</clustering>
</event>
<event>
 6   2  0.3464723E-02  0.3914158E+03  0.7816531E-02  0.1046793E+00
       21   -1    0    0  505  502  0.00000000000E+00  0.00000000000E+00  0.55398159360E+03  0.55398159360E+03  0.00000000000E+00 0. -1.
       21   -1    0    0  501  503  0.00000000000E+00  0.00000000000E+00 -0.96787103014E+03  0.96787103014E+03  0.00000000000E+00 0. -1.
  1000006    1    1    2  501    0 -0.72473930347E+02  0.15671536977E+03 -0.77093778849E+03  0.86409331176E+03  0.35000000000E+03 0.  0.
 -1000006    1    1    2    0  504  0.89226527370E+02 -0.17113605057E+03  0.19327733369E+03  0.44396514358E+03  0.35000000000E+03 0.  0.
       21    1    1    2  504  502 -0.19385442554E+02  0.66269325292E+02  0.14121324056E+03  0.15718968849E+03  0.00000000000E+00 0. -1.
       21    1    1    2  505  503  0.26328455315E+01 -0.51848644492E+02  0.22557777698E+02  0.56604479910E+02  0.00000000000E+00 0. -1.
<scales pt_clust_1="13000.00000" pt_clust_2="13000.00000" pt_clust_3="54.51011" pt_clust_4="51.91545"></scales>
<clustering>
<clus scale="   51.915">  1  6  2 -1</clus>
<clus scale="   54.510">  1  5  2 -1</clus>
<clus scale="  391.416">  2  3  1 -1</clus>
<clus scale="  391.416">  1  3  2 -1</clus>
</clustering>
</event>
<event>
 5   1  0.3464723E-02  0.4637713E+03  0.7816531E-02  0.1023693E+00
       21   -1    0    0  501  502  0.00000000000E+00  0.00000000000E+00  0.17829365567E+04  0.17829365567E+04  0.00000000000E+00 0.  1.
       21   -1    0    0  502  503  0.00000000000E+00  0.00000000000E+00 -0.28199754835E+03  0.28199754835E+03  0.00000000000E+00 0.  1.
  1000006    1    1    2  501    0  0.14438487949E+03 -0.26571435854E+03  0.10554213197E+04  0.11523303675E+04  0.35000000000E+03 0.  0.
 -1000006    1    1    2    0  504 -0.96109370257E+02  0.29539473299E+03  0.59253361678E+03  0.75504380426E+03  0.35000000000E+03 0.  0.
       21    1    1    2  504  503 -0.48275509237E+02 -0.29680374454E+02 -0.14701592819E+03  0.15755993324E+03  0.00000000000E+00 0.  1.
<scales pt_clust_1="13000.00000" pt_clust_2="13000.00000" pt_clust_3="56.66965"></scales>
<clustering>
<clus scale="   56.670">  2  5  1 -1</clus>
<clus scale="  463.771">  1  3  2 -1</clus>
<clus scale="  463.771">  1  3  2 -1</clus>
</clustering>
</event>
<event>
 6   2  0.3464723E-02  0.4024894E+03  0.7816531E-02  0.1042921E+00
       21   -1    0    0  505  502  0.00000000000E+00  0.00000000000E+00  0.34670701400E+03  0.34670701400E+03  0.00000000000E+00 0. -1.
       21   -1    0    0  501  503  0.00000000000E+00  0.00000000000E+00 -0.20863670088E+04  0.20863670088E+04  0.00000000000E+00 0. -1.
  1000006    1    1    2  501    0 -0.21528675959E+03 -0.10164705392E+03 -0.11633723863E+04  0.12379886193E+04  0.35000000000E+03 0.  0.
 -1000006    1    1    2    0  502  0.20610581184E+03 -0.26269020682E+03 -0.55557159503E+03  0.73664479068E+03  0.35000000000E+03 0.  0.
       21    1    1    2  504  503  0.44547624989E+02  0.37376424354E+02 -0.10403363839E+03  0.11918257384E+03  0.00000000000E+00 0. -1.
       21    1    1    2  505  504 -0.35366677236E+02  0.32696083639E+03  0.83317624886E+02  0.33925803897E+03  0.00000000000E+00 0. -1.
<scales pt_clust_1="13000.00000" pt_clust_2="13000.00000" pt_clust_3="58.15056" pt_clust_4="330.98046"></scales>
<clustering>
<clus scale="   58.151">  2  5  1 -1</clus>
<clus scale="  330.980">  1  6  2 -1</clus>
<clus scale="  402.489">  1  4  2 -1</clus>
<clus scale="  402.489">  1  3  2 -1</clus>
</clustering>
</event>
<event>
 5   1  0.3464723E-02  0.3515914E+03  0.7816531E-02  0.1061964E+00
       21   -1    0    0  503  502  0.00000000000E+00  0.00000000000E+00  0.37556910718E+03  0.37556910718E+03  0.00000000000E+00 0. -1.
       21   -1    0    0  501  503  0.00000000000E+00  0.00000000000E+00 -0.48761039766E+03  0.48761039766E+03  0.00000000000E+00 0. -1.
  1000006    1    1    2  501    0  0.87848639058E+01  0.38850652928E+02 -0.23812021696E+03  0.42519146839E+03  0.35000000000E+03 0.  0.
 -1000006    1    1    2    0  504  0.28183992774E+02 -0.21094193329E+02  0.55160141707E+02  0.35606452179E+03  0.35000000000E+03 0.  0.
       21    1    1    2  504  502 -0.36968856680E+02 -0.17756459599E+02  0.70918784776E+02  0.81923514669E+02  0.00000000000E+00 0. -1.
<scales pt_clust_1="13000.00000" pt_clust_2="13000.00000" pt_clust_3="41.01205"></scales>
<clustering>
<clus scale="   41.012">  1  5  2 -1</clus>
<clus scale="  351.591">  1  4  2 -1</clus>
<clus scale="  351.591">  1  3  2 -1</clus>
</clustering>
</event>
<event>
 6   2  0.3464723E-02  0.4114631E+03  0.7816531E-02  0.1039881E+00
       21   -1    0    0  501  502  0.00000000000E+00  0.00000000000E+00  0.43408566273E+03  0.43408566273E+03  0.00000000000E+00 0. -1.
       21   -1    0    0  504  503  0.00000000000E+00  0.00000000000E+00 -0.11073952026E+04  0.11073952026E+04  0.00000000000E+00 0. -1.
  1000006    1    1    2  501    0 -0.39559615598E+03 -0.79486423950E+02 -0.21187361669E+03  0.57463452704E+03  0.35000000000E+03 0.  0.
 -1000006    1    1    2    0  503  0.38670061069E+02  0.91867367631E+02 -0.35287931032E+03  0.50691103215E+03  0.35000000000E+03 0.  0.
       21    1    1    2  504  505  0.17765611253E+03 -0.71851726407E+02 -0.17519349053E+03  0.25964807727E+03  0.00000000000E+00 0. -1.
       21    1    1    2  505  502  0.17926998238E+03  0.59470782726E+02  0.66636877665E+02  0.20028722887E+03  0.00000000000E+00 0. -1.
<scales pt_clust_1="13000.00000" pt_clust_2="13000.00000" pt_clust_3="212.54416" pt_clust_4="188.87695"></scales>
<clustering>
<clus scale="  188.877">  1  6  2 -1</clus>
<clus scale="  212.544">  2  5  1 -1</clus>
<clus scale="  411.463">  1  3  2 -1</clus>
<clus scale="  411.463">  1  3  2 -1</clus>
</clustering>
</event>
<event>
 5   1  0.3464723E-02  0.3528407E+03  0.7816531E-02  0.1061455E+00
       21   -1    0    0  501  502  0.00000000000E+00  0.00000000000E+00  0.19941850430E+03  0.19941850430E+03  0.00000000000E+00 0.  1.
       21   -1    0    0  504  503  0.00000000000E+00  0.00000000000E+00 -0.99484992328E+03  0.99484992328E+03  0.00000000000E+00 0.  1.
  1000006    1    1    2  501    0 -0.62318976076E+02  0.41935850950E+02 -0.43308212260E+03  0.56187400304E+03  0.35000000000E+03 0.  0.
 -1000006    1    1    2    0  503  0.13497205243E+02 -0.63397960579E+01 -0.42134091543E+03  0.54795121551E+03  0.35000000000E+03 0.  0.
       21    1    1    2  504  502  0.48821770833E+02 -0.35596054892E+02  0.58991619054E+02  0.84443209021E+02  0.00000000000E+00 0.  1.
<scales pt_clust_1="13000.00000" pt_clust_2="13000.00000" pt_clust_3="60.42056"></scales>
<clustering>
<clus scale="   60.421">  1  5  2 -1</clus>
<clus scale="  352.841">  2  4  1 -1</clus>
<clus scale="  352.841">  1  3  2 -1</clus>
</clustering>
</event>
<event>
 4   0  0.3464723E-02  0.3515745E+03  0.7816531E-02  0.1061971E+00
       21   -1    0    0  503  502  0.00000000000E+00  0.00000000000E+00  0.18599613730E+03  0.18599613730E+03  0.00000000000E+00 0.  1.
       21   -1    0    0  501  503  0.00000000000E+00  0.00000000000E+00 -0.73796134373E+03  0.73796134373E+03  0.00000000000E+00 0.  1.
  1000006    1    1    2  501    0 -0.29876335943E+02 -0.14560290108E+02 -0.42168712259E+03  0.54902151766E+03  0.35000000000E+03 0.  0.
 -1000006    1    1    2    0  502  0.29876335943E+02  0.14560290108E+02 -0.13027808385E+03  0.37493596337E+03  0.35000000000E+03 0.  0.
<scales pt_clust_1="13000.00000" pt_clust_2="13000.00000"></scales>
<clustering>
<clus scale="  351.574">  2  3  1 -1</clus>
<clus scale="  351.574">  1  3  2 -1</clus>
</clustering>
</event>
<event>
 5   1  0.3464723E-02  0.3787254E+03  0.7816531E-02  0.1051406E+00
       21   -1    0    0  503  502  0.00000000000E+00  0.00000000000E+00  0.13481884140E+04  0.13481884140E+04  0.00000000000E+00 0. -1.
       21   -1    0    0  504  503  0.00000000000E+00  0.00000000000E+00 -0.48217355885E+03  0.48217355885E+03  0.00000000000E+00 0.  1.
  1000006    1    1    2  501    0  0.11168740363E+03 -0.69113086923E+02  0.53830106621E+03  0.65537678689E+03  0.35000000000E+03 0.  0.
 -1000006    1    1    2    0  502 -0.14463132244E+03  0.60216324183E+02  0.70159511960E+03  0.79954983395E+03  0.35000000000E+03 0.  0.
       21    1    1    2  504  501  0.32943918805E+02  0.88967627397E+01 -0.37388133063E+03  0.37543535204E+03  0.00000000000E+00 0.  1.
<scales pt_clust_1="13000.00000" pt_clust_2="13000.00000" pt_clust_3="34.12410"></scales>
<clustering>
<clus scale="   34.124">  2  5  1 -1</clus>
<clus scale="  378.725">  2  3  1 -1</clus>
<clus scale="  378.725">  1  3  2 -1</clus>
</clustering>
</event>
<event>
 5   1  0.3464723E-02  0.3561174E+03  0.7816531E-02  0.1060132E+00
        2   -1    0    0  501    0  0.00000000000E+00  0.00000000000E+00  0.50120915685E+03  0.50120915685E+03  0.00000000000E+00 0. -1.
       21   -1    0    0  502  503  0.00000000000E+00  0.00000000000E+00 -0.79997272465E+03  0.79997272465E+03  0.00000000000E+00 0. -1.
  1000006    1    1    2  501    0 -0.12822051609E+02 -0.43781491858E+02 -0.71067191267E+02  0.36004412190E+03  0.35000000000E+03 0.  0.
 -1000006    1    1    2    0  503 -0.86185516835E+02  0.25089475885E+02 -0.51928897731E+03  0.63262822184E+03  0.35000000000E+03 0.  0.
        2    1    1    2  502    0  0.99007568443E+02  0.18692015972E+02  0.29159260078E+03  0.30850953777E+03  0.00000000000E+00 0. -1.
<scales pt_clust_1="13000.00000" pt_clust_2="13000.00000" pt_clust_3="100.75659"></scales>
<clustering>
<clus scale="  100.757">  1  5  2 -1</clus>
<clus scale="  356.117">  2  4  1 -1</clus>
<clus scale="  356.117">  2  3  1 -1</clus>
</clustering>
</event>
<event>
 6   2  0.3464723E-02  0.5797891E+03  0.7816531E-02  0.1008207E+00
       21   -1    0    0  501  503  0.00000000000E+00  0.00000000000E+00  0.30078825981E+03  0.30078825981E+03  0.00000000000E+00 0.  1.
        1   -1    0    0  504    0  0.00000000000E+00  0.00000000000E+00 -0.26674069865E+04  0.26674069865E+04  0.00000000000E+00 0.  1.
  1000006    1    1    2  501    0  0.24815684825E+02  0.15500208155E+03 -0.76529201177E+03  0.85604516632E+03  0.35000000000E+03 0.  0.
 -1000006    1    1    2    0  502 -0.13094830658E+03  0.32921049091E+03 -0.11288095580E+03  0.51065557522E+03  0.35000000000E+03 0.  0.
       21    1    1    2  504  503 -0.41318049498E+02 -0.14697052610E+02 -0.45226681618E+03  0.45438800335E+03  0.00000000000E+00 0. -1.
        1    1    1    2  502    0  0.14745067126E+03 -0.46951551985E+03 -0.10361789430E+04  0.11471065015E+04  0.00000000000E+00 0.  1.
<scales pt_clust_1="13000.00000" pt_clust_2="13000.00000" pt_clust_3="43.85413" pt_clust_4="462.22872"></scales>
<clustering>
<clus scale="   43.854">  2  5  1 -1</clus>
<clus scale="  380.763">  1  3  2 -1</clus>
<clus scale="  462.229">  2  6  1 -1</clus>
<clus scale="  579.789">  1  3  2 -1</clus>
</clustering>
</event>
<event>
 6   2  0.3464723E-02  0.4158437E+03  0.7816531E-02  0.1038428E+00
        1   -1    0    0  502    0  0.00000000000E+00  0.00000000000E+00  0.15971912051E+04  0.15971912051E+04  0.00000000000E+00 0.  1.
        2   -1    0    0  501    0  0.00000000000E+00  0.00000000000E+00 -0.29125253505E+04  0.29125253505E+04  0.00000000000E+00 0.  1.
  1000006    1    1    2  501    0 -0.17016007689E+03 -0.13260686789E+03 -0.11514551207E+03  0.42696313907E+03  0.35000000000E+03 0.  0.
 -1000006    1    1    2    0  503  0.24047977763E+03  0.49790022580E+02 -0.75262696557E+02  0.43413597328E+03  0.35000000000E+03 0.  0.
        2    1    1    2  502    0 -0.31565469532E+02  0.31140913177E+02 -0.23857389179E+04  0.23861509424E+04  0.00000000000E+00 0.  1.
        1    1    1    2  503    0 -0.38754231215E+02  0.51675932129E+02  0.12608129812E+04  0.12624665009E+04  0.00000000000E+00 0.  1.
<scales pt_clust_1="13000.00000" pt_clust_2="13000.00000" pt_clust_3="44.34112" pt_clust_4="64.66213"></scales>
<clustering>
<clus scale="   44.341">  2  5  1 -1</clus>
<clus scale="   64.662">  1  6  2 -1</clus>
<clus scale="  415.844">  1  4  2 -1</clus>
<clus scale="  415.844">  2  3  1 -1</clus>
</clustering>
</event>
<event>
 5   1  0.3464723E-02  0.1007922E+04  0.7816531E-02  0.9299899E-01
       21   -1    0    0  501  503  0.00000000000E+00  0.00000000000E+00  0.37356153053E+03  0.37356153053E+03  0.00000000000E+00 0.  1.
        2   -1    0    0  503    0  0.00000000000E+00  0.00000000000E+00 -0.24522054549E+04  0.24522054549E+04  0.00000000000E+00 0.  1.
  1000006    1    1    2  501    0 -0.24099071818E+03 -0.18100147761E+03 -0.17989302211E+03  0.49568090598E+03  0.35000000000E+03 0.  0.
 -1000006    1    1    2    0  502 -0.39223255324E+03  0.13121379460E+03 -0.32216843906E+03  0.63036175236E+03  0.35000000000E+03 0.  0.
        2    1    1    2  502    0  0.63322327142E+03  0.49787683005E+02 -0.15765824632E+04  0.16997243271E+04  0.00000000000E+00 0.  1.
<scales pt_clust_1="13000.00000" pt_clust_2="13000.00000" pt_clust_3="635.17755"></scales>
<clustering>
<clus scale="  459.136">  3  4 -1 -1</clus>
<clus scale="  635.178">  2  5  1 -1</clus>
<clus scale=" 1007.922">  1  3  2 -1</clus>
</clustering>
</event>
<event>
 4   0  0.3464723E-02  0.4254379E+03  0.7816531E-02  0.1035311E+00
       21   -1    0    0  501  502  0.00000000000E+00  0.00000000000E+00  0.91925714544E+03  0.91925714544E+03  0.00000000000E+00 0. -1.
       21   -1    0    0  502  503  0.00000000000E+00  0.00000000000E+00 -0.19805537780E+03  0.19805537780E+03  0.00000000000E+00 0. -1.
  1000006    1    1    2  501    0 -0.40853446729E+02 -0.23838703365E+03  0.40335726280E+03  0.58625460627E+03  0.35000000000E+03 0.  0.
 -1000006    1    1    2    0  503  0.40853446729E+02  0.23838703365E+03  0.31784450484E+03  0.53105791697E+03  0.35000000000E+03 0.  0.
<scales pt_clust_1="13000.00000" pt_clust_2="13000.00000"></scales>
<clustering>
<clus scale="  425.438">  1  3  2 -1</clus>
<clus scale="  425.438">  1  3  2 -1</clus>
</clustering>
</event>
<event>
 4   0  0.3464723E-02  0.4923511E+03  0.7816531E-02  0.1015795E+00
        1   -1    0    0  502    0  0.00000000000E+00  0.00000000000E+00  0.23576625844E+04  0.23576625844E+04  0.00000000000E+00 0.  1.
       -1   -1    0    0    0  501  0.00000000000E+00  0.00000000000E+00 -0.10668504763E+03  0.10668504763E+03  0.00000000000E+00 0. -1.
  1000006    1    1    2  502    0 -0.54568170299E+02  0.34195307610E+03  0.89089131181E+03  0.10178884619E+04  0.35000000000E+03 0.  0.
 -1000006    1    1    2    0  501  0.54568170299E+02 -0.34195307610E+03  0.13600862249E+04  0.14464591701E+04  0.35000000000E+03 0.  0.
<scales pt_clust_1="13000.00000" pt_clust_2="13000.00000"></scales>
<clustering>
<clus scale="  799.130">  3  4 -1 -1</clus>
<clus scale="  492.351">  1  3  2 -1</clus>
</clustering>
</event>
<event>
 5   1  0.3464723E-02  0.7483250E+03  0.7816531E-02  0.9637982E-01
       21   -1    0    0  501  502  0.00000000000E+00  0.00000000000E+00  0.69229742813E+03  0.69229742813E+03  0.00000000000E+00 0.  1.
       21   -1    0    0  504  503  0.00000000000E+00  0.00000000000E+00 -0.14052218256E+04  0.14052218256E+04  0.00000000000E+00 0. -1.
  1000006    1    1    2  501    0 -0.64741227543E+03  0.16950727779E+03  0.24826402017E+03  0.79499081461E+03  0.35000000000E+03 0.  0.
 -1000006    1    1    2    0  503  0.59372158423E+03 -0.24588109822E+03 -0.65382661296E+03  0.98130121464E+03  0.35000000000E+03 0.  0.
       21    1    1    2  504  502  0.53690691208E+02  0.76373820431E+02 -0.30736180472E+03  0.32122722452E+03  0.00000000000E+00 0. -1.
<scales pt_clust_1="13000.00000" pt_clust_2="13000.00000" pt_clust_3="93.35765"></scales>
<clustering>
<clus scale="   93.358">  2  5  1 -1</clus>
<clus scale="  748.325">  2  4  1 -1</clus>
<clus scale="  748.325">  1  3  2 -1</clus>
</clustering>
</event>
<event>
 4   0  0.3464723E-02  0.3554761E+03  0.7816531E-02  0.1060390E+00
       21   -1    0    0  503  502  0.00000000000E+00  0.00000000000E+00  0.83044604793E+02  0.83044604793E+02  0.00000000000E+00 0.  1.
       21   -1    0    0  501  503  0.00000000000E+00  0.00000000000E+00 -0.15699408785E+04  0.15699408785E+04  0.00000000000E+00 0.  1.
  1000006    1    1    2  501    0  0.16784690982E+02  0.59845801239E+02 -0.88843055117E+03  0.95690756609E+03  0.35000000000E+03 0.  0.
 -1000006    1    1    2    0  502 -0.16784690982E+02 -0.59845801239E+02 -0.59846572256E+03  0.69607791723E+03  0.35000000000E+03 0.  0.
<scales pt_clust_1="13000.00000" pt_clust_2="13000.00000"></scales>
<clustering>
<clus scale="  355.476">  2  3  1 -1</clus>
<clus scale="  355.476">  1  3  2 -1</clus>
</clustering>
</event>
<event>
 5   1  0.3464723E-02  0.4205953E+03  0.7816531E-02  0.1036873E+00
       21   -1    0    0  501  502  0.00000000000E+00  0.00000000000E+00  0.56419657507E+03  0.56419657507E+03  0.00000000000E+00 0. -1.
       21   -1    0    0  502  503  0.00000000000E+00  0.00000000000E+00 -0.49662309473E+03  0.49662309473E+03  0.00000000000E+00 0.  1.
  1000006    1    1    2  501    0  0.18875383058E+03 -0.15876790433E+03  0.19645081311E+03  0.47109253653E+03  0.35000000000E+03 0.  0.
 -1000006    1    1    2    0  504 -0.60706736069E+02  0.23034746738E+03 -0.59782825516E+02  0.42757367758E+03  0.35000000000E+03 0.  0.
       21    1    1    2  504  503 -0.12804709451E+03 -0.71579563054E+02 -0.69094507256E+02  0.16215345569E+03  0.00000000000E+00 0.  1.
<scales pt_clust_1="13000.00000" pt_clust_2="13000.00000" pt_clust_3="146.69592"></scales>
<clustering>
<clus scale="  146.696">  2  5  1 -1</clus>
<clus scale="  420.595">  1  3  2 -1</clus>
<clus scale="  420.595">  1  3  2 -1</clus>
</clustering>
</event>
<event>
 5   1  0.3464723E-02  0.3699288E+03  0.7816531E-02  0.1054720E+00
       21   -1    0    0  504  502  0.00000000000E+00  0.00000000000E+00  0.59505640174E+03  0.59505640174E+03  0.00000000000E+00 0.  1.
       21   -1    0    0  502  503  0.00000000000E+00  0.00000000000E+00 -0.43176931978E+03  0.43176931978E+03  0.00000000000E+00 0.  1.
  1000006    1    1    2  501    0 -0.11014491599E+02  0.10323803177E+03 -0.75041218384E+01  0.36515164257E+03  0.35000000000E+03 0.  0.
 -1000006    1    1    2    0  503 -0.20741574776E+02 -0.13279378378E+03 -0.99520793853E+02  0.38790306823E+03  0.35000000000E+03 0.  0.
       21    1    1    2  504  501  0.31756066374E+02  0.29555752006E+02  0.27031199765E+03  0.27377101071E+03  0.00000000000E+00 0.  1.
<scales pt_clust_1="13000.00000" pt_clust_2="13000.00000" pt_clust_3="43.38191"></scales>
<clustering>
<clus scale="   43.382">  1  5  2 -1</clus>
<clus scale="  369.929">  2  4  1 -1</clus>
<clus scale="  369.929">  1  3  2 -1</clus>
</clustering>
</event>
<event>
 6   2  0.3464723E-02  0.7268459E+03  0.7816531E-02  0.9672392E-01
       21   -1    0    0  505  502  0.00000000000E+00  0.00000000000E+00  0.26779758152E+04  0.26779758152E+04  0.00000000000E+00 0.  1.
       21   -1    0    0  501  503  0.00000000000E+00  0.00000000000E+00 -0.85597385551E+03  0.85597385551E+03  0.00000000000E+00 0.  1.
  1000006    1    1    2  501    0 -0.28606436302E+02 -0.65143929491E+03 -0.48349376690E+03  0.88400096481E+03  0.35000000000E+03 0.  0.
 -1000006    1    1    2    0  502  0.20749306039E+02  0.58421363582E+03  0.53243996117E+03  0.86471291087E+03  0.35000000000E+03 0.  0.
       21    1    1    2  504  503 -0.29820408269E+02  0.80484367779E+02  0.31078063271E+03  0.32241524758E+03  0.00000000000E+00 0. -1.
       21    1    1    2  505  504  0.37677538532E+02 -0.13258708685E+02  0.14622751327E+04  0.14628205474E+04  0.00000000000E+00 0.  1.
<scales pt_clust_1="13000.00000" pt_clust_2="13000.00000" pt_clust_3="79.58625" pt_clust_4="39.94234"></scales>
<clustering>
<clus scale="   39.942">  1  6  2 -1</clus>
<clus scale="   79.586">  1  5  2 -1</clus>
<clus scale="  726.846">  2  3  1 -1</clus>
<clus scale="  726.846">  1  3  2 -1</clus>
</clustering>
</event>
<event>
 5   1  0.3464723E-02  0.4092789E+03  0.7816531E-02  0.1040613E+00
       21   -1    0    0  504  502  0.00000000000E+00  0.00000000000E+00  0.92857410856E+03  0.92857410856E+03  0.00000000000E+00 0.  1.
       21   -1    0    0  502  503  0.00000000000E+00  0.00000000000E+00 -0.50688828304E+03  0.50688828304E+03  0.00000000000E+00 0.  1.
  1000006    1    1    2  501    0 -0.24766858458E+03 -0.96490971940E+02  0.18219061285E+03  0.47575587739E+03  0.35000000000E+03 0.  0.
 -1000006    1    1    2    0  503  0.19955307289E+03 -0.28894431241E+02 -0.23449370448E+03  0.46705847010E+03  0.35000000000E+03 0.  0.
       21    1    1    2  504  501  0.48115511694E+02  0.12538540318E+03  0.47398891714E+03  0.49264804411E+03  0.00000000000E+00 0.  1.
<scales pt_clust_1="13000.00000" pt_clust_2="13000.00000" pt_clust_3="134.30042"></scales>
<clustering>
<clus scale="  134.300">  1  5  2 -1</clus>
<clus scale="  409.279">  2  4  1 -1</clus>
<clus scale="  409.279">  1  3  2 -1</clus>
</clustering>
</event>
<event>
 4   0  0.3464723E-02  0.3534830E+03  0.7816531E-02  0.1061194E+00
       21   -1    0    0  501  502  0.00000000000E+00  0.00000000000E+00  0.22246426521E+03  0.22246426521E+03  0.00000000000E+00 0.  1.
       21   -1    0    0  502  503  0.00000000000E+00  0.00000000000E+00 -0.97330644208E+03  0.97330644208E+03  0.00000000000E+00 0.  1.
  1000006    1    1    2  501    0 -0.48369694862E+02 -0.10517606431E+02  0.13402857092E+02  0.35373702662E+03  0.35000000000E+03 0.  0.
 -1000006    1    1    2    0  503  0.48369694862E+02  0.10517606431E+02 -0.76424503397E+03  0.84203368066E+03  0.35000000000E+03 0.  0.
<scales pt_clust_1="13000.00000" pt_clust_2="13000.00000"></scales>
<clustering>
<clus scale="  353.483">  1  3  2 -1</clus>
<clus scale="  353.483">  1  3  2 -1</clus>
</clustering>
</event>
<event>
 5   1  0.3464723E-02  0.3716380E+03  0.7816531E-02  0.1054068E+00
       21   -1    0    0  503  502  0.00000000000E+00  0.00000000000E+00  0.67740014001E+03  0.67740014001E+03  0.00000000000E+00 0.  1.
       21   -1    0    0  501  503  0.00000000000E+00  0.00000000000E+00 -0.42023973001E+03  0.42023973001E+03  0.00000000000E+00 0.  1.
  1000006    1    1    2  501    0  0.13573952606E+03 -0.72063606423E+02 -0.37584769627E+02  0.38409764021E+03  0.35000000000E+03 0.  0.
 -1000006    1    1    2    0  504 -0.10539360088E+03 -0.15290247008E+03  0.86627259139E+02  0.40557521928E+03  0.35000000000E+03 0.  0.
       21    1    1    2  504  502 -0.30345925178E+02  0.22496607651E+03  0.20811792049E+03  0.30796701054E+03  0.00000000000E+00 0.  1.
<scales pt_clust_1="13000.00000" pt_clust_2="13000.00000" pt_clust_3="227.00355"></scales>
<clustering>
<clus scale="  227.004">  1  5  2 -1</clus>
<clus scale="  371.638">  2  3  1 -1</clus>
<clus scale="  371.638">  1  3  2 -1</clus>
</clustering>
</event>
<event>
 5   1  0.3464723E-02  0.7875467E+03  0.7816531E-02  0.9620365E-01
       21   -1    0    0  501  503  0.00000000000E+00  0.00000000000E+00  0.43028869772E+03  0.43028869772E+03  0.00000000000E+00 0. -1.
        2   -1    0    0  503    0  0.00000000000E+00  0.00000000000E+00 -0.30859366283E+04  0.30859366283E+04  0.00000000000E+00 0. -1.
  1000006    1    1    2  501    0 -0.80262485723E+02  0.57942757288E+03 -0.63148975150E+03  0.92922423832E+03  0.35000000000E+03 0.  0.
 -1000006    1    1    2    0  502  0.68942334999E+03 -0.44949601557E+02 -0.75791363281E+03  0.10836319011E+04  0.35000000000E+03 0.  0.
        2    1    1    2  502    0 -0.60916086427E+03 -0.53447797132E+03 -0.12662445463E+04  0.15033691866E+04  0.00000000000E+00 0. -1.
<scales pt_clust_1="13000.00000" pt_clust_2="13000.00000" pt_clust_3="705.49967"></scales>
<clustering>
<clus scale="  681.673">  1  3  2 -1</clus>
<clus scale="  705.500">  2  5  1 -1</clus>
<clus scale="  787.547">  1  3  2 -1</clus>
</clustering>
</event>
<event>
 5   1  0.3464723E-02  0.4981290E+03  0.7816531E-02  0.1014268E+00
        1   -1    0    0  502    0  0.00000000000E+00  0.00000000000E+00  0.19045298563E+04  0.19045298563E+04  0.00000000000E+00 0.  1.
       -1   -1    0    0    0  501  0.00000000000E+00  0.00000000000E+00 -0.30146298741E+03  0.30146298741E+03  0.00000000000E+00 0. -1.
  1000006    1    1    2  502    0 -0.27025741740E+03  0.17592183701E+03  0.20748170294E+03  0.51916877935E+03  0.35000000000E+03 0.  0.
 -1000006    1    1    2    0  503  0.25770983641E+03 -0.25785660238E+03  0.14827677656E+04  0.15665262953E+04  0.35000000000E+03 0.  0.
       21    1    1    2  503  501  0.12547580992E+02  0.81934765369E+02 -0.87182599634E+02  0.12029776907E+03  0.00000000000E+00 0. -1.
<scales pt_clust_1="13000.00000" pt_clust_2="13000.00000" pt_clust_3="82.88997"></scales>
<clustering>
<clus scale="   82.890">  2  5  1 -1</clus>
<clus scale=" 1057.738">  3  4 -1 -1</clus>
<clus scale="  498.129">  1  3  2 -1</clus>
</clustering>
</event>
<event>
 6   2  0.3464723E-02  0.4502534E+03  0.7816531E-02  0.1027647E+00
       21   -1    0    0  505  502  0.00000000000E+00  0.00000000000E+00  0.18992037847E+04  0.18992037847E+04  0.00000000000E+00 0. -1.
       21   -1    0    0  501  503  0.00000000000E+00  0.00000000000E+00 -0.79247526093E+03  0.79247526093E+03  0.00000000000E+00 0. -1.
  1000006    1    1    2  501    0  0.23757672463E+03  0.24777168320E+02  0.39314132965E+03  0.57802829795E+03  0.35000000000E+03 0.  0.
 -1000006    1    1    2    0  504 -0.23734965586E+03 -0.19254760617E+03  0.91985203945E+03  0.10305518979E+04  0.35000000000E+03 0.  0.
       21    1    1    2  504  502 -0.39988070784E+02 -0.69100964748E+02  0.41208081308E+03  0.41974347600E+03  0.00000000000E+00 0. -1.
       21    1    1    2  505  503  0.39761002012E+02  0.23687140259E+03 -0.61834565841E+03  0.66335537378E+03  0.00000000000E+00 0. -1.
<scales pt_clust_1="13000.00000" pt_clust_2="13000.00000" pt_clust_3="79.83727" pt_clust_4="239.05133"></scales>
<clustering>
<clus scale="   79.837">  1  5  2 -1</clus>
<clus scale="  239.051">  2  6  1 -1</clus>
<clus scale="  450.253">  1  4  2 -1</clus>
<clus scale="  450.253">  1  3  2 -1</clus>
</clustering>
</event>
<event>
 5   1  0.3464723E-02  0.3542793E+03  0.7816531E-02  0.1060872E+00
       21   -1    0    0  503  502  0.00000000000E+00  0.00000000000E+00  0.39736601328E+03  0.39736601328E+03  0.00000000000E+00 0.  1.
       21   -1    0    0  504  503  0.00000000000E+00  0.00000000000E+00 -0.45575211327E+03  0.45575211327E+03  0.00000000000E+00 0.  1.
  1000006    1    1    2  501    0 -0.60050734725E+02 -0.78175872585E+01  0.16302944803E+02  0.35557417148E+03  0.35000000000E+03 0.  0.
 -1000006    1    1    2    0  502  0.30030322068E+02  0.54717283250E+02  0.51860834583E+02  0.35928449381E+03  0.35000000000E+03 0.  0.
       21    1    1    2  504  501  0.30020412657E+02 -0.46899695992E+02 -0.12654987937E+03  0.13825946127E+03  0.00000000000E+00 0. -1.
<scales pt_clust_1="13000.00000" pt_clust_2="13000.00000" pt_clust_3="55.68489"></scales>
<clustering>
<clus scale="   55.685">  2  5  1 -1</clus>
<clus scale="  354.279">  2  3  1 -1</clus>
<clus scale="  354.279">  1  3  2 -1</clus>
</clustering>
</event>
<event>
 5   1  0.3464723E-02  0.4799220E+03  0.7816531E-02  0.1019157E+00
       21   -1    0    0  503  502  0.00000000000E+00  0.00000000000E+00  0.39106859834E+03  0.39106859834E+03  0.00000000000E+00 0.  1.
       21   -1    0    0  504  503  0.00000000000E+00  0.00000000000E+00 -0.11203819907E+04  0.11203819907E+04  0.00000000000E+00 0. -1.
  1000006    1    1    2  501    0  0.14495817113E+03 -0.25342105040E+03 -0.66022906910E+03  0.80227023118E+03  0.35000000000E+03 0.  0.
 -1000006    1    1    2    0  502 -0.14681494430E+03  0.30424314254E+03  0.13016042658E+03  0.50354766835E+03  0.35000000000E+03 0.  0.
       21    1    1    2  504  501  0.18567731688E+01 -0.50822092145E+02 -0.19924474979E+03  0.20563268946E+03  0.00000000000E+00 0.  1.
<scales pt_clust_1="13000.00000" pt_clust_2="13000.00000" pt_clust_3="50.85600"></scales>
<clustering>
<clus scale="   50.856">  2  5  1 -1</clus>
<clus scale="  479.922">  2  3  1 -1</clus>
<clus scale="  479.922">  1  3  2 -1</clus>
</clustering>
</event>
<event>
 4   0  0.3464723E-02  0.3951187E+03  0.7816531E-02  0.1045483E+00
       21   -1    0    0  501  502  0.00000000000E+00  0.00000000000E+00  0.33442103555E+03  0.33442103555E+03  0.00000000000E+00 0.  1.
       21   -1    0    0  502  503  0.00000000000E+00  0.00000000000E+00 -0.48151771937E+03  0.48151771937E+03  0.00000000000E+00 0.  1.
  1000006    1    1    2  501    0  0.18009260422E+03  0.34429706217E+02 -0.23031863038E+01  0.39512536673E+03  0.35000000000E+03 0.  0.
 -1000006    1    1    2    0  503 -0.18009260422E+03 -0.34429706217E+02 -0.14479349752E+03  0.42081338820E+03  0.35000000000E+03 0.  0.
<scales pt_clust_1="13000.00000" pt_clust_2="13000.00000"></scales>
<clustering>
<clus scale="  395.119">  1  3  2 -1</clus>
<clus scale="  395.119">  1  3  2 -1</clus>
</clustering>
</event>
<event>
 5   1  0.3464723E-02  0.3952868E+03  0.7816531E-02  0.1045424E+00
       21   -1    0    0  502  503  0.00000000000E+00  0.00000000000E+00  0.97268144502E+03  0.97268144502E+03  0.00000000000E+00 0. -1.
        2   -1    0    0  501    0  0.00000000000E+00  0.00000000000E+00 -0.63244792010E+03  0.63244792010E+03  0.00000000000E+00 0. -1.
  1000006    1    1    2  501    0 -0.18581959675E+03  0.16318938018E+03  0.35941201122E+03  0.55931805813E+03  0.35000000000E+03 0.  0.
 -1000006    1    1    2    0  503  0.81458188937E+02 -0.11522923023E+03  0.43584344596E+03  0.57651775465E+03  0.35000000000E+03 0.  0.
        2    1    1    2  502    0  0.10436140781E+03 -0.47960149948E+02 -0.45502193226E+03  0.46929355233E+03  0.00000000000E+00 0. -1.
<scales pt_clust_1="13000.00000" pt_clust_2="13000.00000" pt_clust_3="114.85417"></scales>
<clustering>
<clus scale="  114.854">  2  5  1 -1</clus>
<clus scale="  395.287">  2  3  1 -1</clus>
<clus scale="  395.287">  1  3  2 -1</clus>
</clustering>
</event>
<event>
 6   2  0.3464723E-02  0.5054977E+03  0.7816531E-02  0.1012354E+00
       21   -1    0    0  505  502  0.00000000000E+00  0.00000000000E+00  0.15419847368E+04  0.15419847368E+04  0.00000000000E+00 0. -1.
       21   -1    0    0  501  503  0.00000000000E+00  0.00000000000E+00 -0.14783039815E+04  0.14783039815E+04  0.00000000000E+00 0.  1.
  1000006    1    1    2  501    0  0.31311117253E+03 -0.23699307383E+03 -0.53348087752E+03  0.74920369065E+03  0.35000000000E+03 0.  0.
 -1000006    1    1    2    0  502 -0.31568656263E+03  0.17149113704E+03  0.17544161793E+02  0.50187151097E+03  0.35000000000E+03 0.  0.
       21    1    1    2  504  503 -0.48463097986E+02  0.94560281460E+00 -0.59236519387E+03  0.59434509247E+03  0.00000000000E+00 0.  1.
       21    1    1    2  505  504  0.51038488093E+02  0.64556333975E+02  0.11719826648E+04  0.11748684242E+04  0.00000000000E+00 0. -1.
<scales pt_clust_1="13000.00000" pt_clust_2="13000.00000" pt_clust_3="48.47232" pt_clust_4="82.24711"></scales>
<clustering>
<clus scale="   48.472">  2  5  1 -1</clus>
<clus scale="   82.247">  1  6  2 -1</clus>
<clus scale="  505.498">  2  3  1 -1</clus>
<clus scale="  505.498">  1  3  2 -1</clus>
</clustering>
</event>
<event>
 6   2  0.3464723E-02  0.6403070E+03  0.7816531E-02  0.9825139E-01
       -1   -1    0    0    0  501  0.00000000000E+00  0.00000000000E+00  0.15311548477E+04  0.15311548477E+04  0.00000000000E+00 0. -1.
       21   -1    0    0  501  503  0.00000000000E+00  0.00000000000E+00 -0.21330419890E+04  0.21330419890E+04  0.00000000000E+00 0.  1.
  1000006    1    1    2  502    0 -0.50033185673E+03  0.59858633960E+01 -0.12999190546E+03  0.62431217584E+03  0.35000000000E+03 0.  0.
 -1000006    1    1    2    0  504  0.47476295621E+03  0.41315241168E+03 -0.13329666684E+04  0.15150560778E+04  0.35000000000E+03 0.  0.
       21    1    1    2  504  503 -0.94359909963E+02  0.20443524907E+02 -0.27998302448E+03  0.29616249647E+03  0.00000000000E+00 0.  1.
       -1    1    1    2    0  502  0.11992881048E+03 -0.43958179999E+03  0.11410544570E+04  0.12286660866E+04  0.00000000000E+00 0. -1.
<scales pt_clust_1="13000.00000" pt_clust_2="13000.00000" pt_clust_3="96.54911" pt_clust_4="454.59455"></scales>
<clustering>
<clus scale="   96.549">  2  5  1 -1</clus>
<clus scale="  454.595">  1  6  2 -1</clus>
<clus scale="  640.307">  2  4  1 -1</clus>
<clus scale="  640.307">  2  3  1 -1</clus>
</clustering>
</event>
<event>
 6   2  0.3464723E-02  0.3612837E+03  0.7816531E-02  0.1058077E+00
       21   -1    0    0  501  503  0.00000000000E+00  0.00000000000E+00  0.19108855110E+04  0.19108855110E+04  0.00000000000E+00 0.  1.
       21   -1    0    0  502  504  0.00000000000E+00  0.00000000000E+00 -0.13246272809E+03  0.13246272809E+03  0.00000000000E+00 0.  1.
  1000006    1    1    2  501    0  0.14372224060E+02 -0.94788644046E+02  0.55820817131E+03  0.66579862600E+03  0.35000000000E+03 0.  0.
 -1000006    1    1    2    0  504 -0.38493216571E+02  0.78056130356E+02  0.34451264551E+03  0.49876191728E+03  0.35000000000E+03 0.  0.
        4    1    1    2  502    0 -0.57438949418E+01  0.36612637661E+02  0.50274503517E+03  0.50410916273E+03  0.00000000000E+00 0. -1.
       -4    1    1    2    0  503  0.29864887453E+02 -0.19880123971E+02  0.37295693095E+03  0.37467853311E+03  0.00000000000E+00 0.  1.
<scales pt_clust_1="13000.00000" pt_clust_2="13000.00000" pt_clust_3="30.37099" pt_clust_4="35.87661"></scales>
<clustering>
<clus scale="   35.877">  1  6  2 -1</clus>
<clus scale="   30.371">  1  5  2 -1</clus>
<clus scale="  361.284">  1  3  2 -1</clus>
<clus scale="  361.284">  1  3  2 -1</clus>
</clustering>
</event>
<event>
 4   0  0.3464723E-02  0.3587076E+03  0.7816531E-02  0.1059097E+00
       21   -1    0    0  501  502  0.00000000000E+00  0.00000000000E+00  0.11114789792E+03  0.11114789792E+03  0.00000000000E+00 0.  1.
       21   -1    0    0  502  503  0.00000000000E+00  0.00000000000E+00 -0.14526185464E+04  0.14526185464E+04  0.00000000000E+00 0.  1.
  1000006    1    1    2  501    0  0.51261881026E+02  0.59525963920E+02 -0.31840587653E+03  0.47963884646E+03  0.35000000000E+03 0.  0.
 -1000006    1    1    2    0  503 -0.51261881026E+02 -0.59525963920E+02 -0.10230647719E+04  0.10841275978E+04  0.35000000000E+03 0.  0.
<scales pt_clust_1="13000.00000" pt_clust_2="13000.00000"></scales>
<clustering>
<clus scale="  358.708">  1  3  2 -1</clus>
<clus scale="  358.708">  1  3  2 -1</clus>
</clustering>
</event>
<event>
 5   1  0.3464723E-02  0.3556500E+03  0.7816531E-02  0.1060320E+00
       21   -1    0    0  501  502  0.00000000000E+00  0.00000000000E+00  0.16703889005E+03  0.16703889005E+03  0.00000000000E+00 0.  1.
       21   -1    0    0  504  503  0.00000000000E+00  0.00000000000E+00 -0.10565633385E+04  0.10565633385E+04  0.00000000000E+00 0.  1.
  1000006    1    1    2  501    0 -0.64701901038E+02  0.61308440592E+02 -0.21037917108E+03  0.41797662197E+03  0.35000000000E+03 0.  0.
 -1000006    1    1    2    0  503  0.27384715767E+01 -0.11804264843E+02 -0.59169172832E+03  0.68756522691E+03  0.35000000000E+03 0.  0.
       21    1    1    2  504  502  0.61963429461E+02 -0.49504175749E+02 -0.87453549051E+02  0.11806037967E+03  0.00000000000E+00 0. -1.
<scales pt_clust_1="13000.00000" pt_clust_2="13000.00000" pt_clust_3="79.31034"></scales>
<clustering>
<clus scale="   79.310">  2  5  1 -1</clus>
<clus scale="  355.650">  1  3  2 -1</clus>
<clus scale="  355.650">  1  3  2 -1</clus>
</clustering>
</event>
<event>
 6   2  0.3464723E-02  0.4404758E+03  0.7816531E-02  0.1030601E+00
       21   -1    0    0  502  503  0.00000000000E+00  0.00000000000E+00  0.94383144784E+03  0.94383144784E+03  0.00000000000E+00 0. -1.
       -4   -1    0    0    0  501  0.00000000000E+00  0.00000000000E+00 -0.36409478939E+03  0.36409478939E+03  0.00000000000E+00 0.  1.
  1000006    1    1    2  502    0  0.29417892760E+03 -0.67807176522E+02  0.55670459342E+03  0.72357381031E+03  0.35000000000E+03 0.  0.
 -1000006    1    1    2    0  501 -0.21988888258E+03  0.84189176473E+02  0.97559869828E+02  0.43296289254E+03  0.35000000000E+03 0.  0.
       21    1    1    2  504  503 -0.34012460306E+02 -0.13873852771E+01  0.25491370931E+02  0.42527429806E+02  0.00000000000E+00 0. -1.
       -4    1    1    2    0  504 -0.40277584708E+02 -0.14994614674E+02 -0.10001917573E+03  0.10886210458E+03  0.00000000000E+00 0.  1.
<scales pt_clust_1="13000.00000" pt_clust_2="13000.00000" pt_clust_3="34.04074" pt_clust_4="43.13545"></scales>
<clustering>
<clus scale="   34.041">  1  5  2 -1</clus>
<clus scale="   43.135">  2  6  1 -1</clus>
<clus scale="  440.476">  2  4  1 -1</clus>
<clus scale="  440.476">  1  3  2 -1</clus>
</clustering>
</event>
<event>
 5   1  0.3464723E-02  0.3807950E+03  0.7816531E-02  0.1050640E+00
       21   -1    0    0  501  502  0.00000000000E+00  0.00000000000E+00  0.96288784809E+02  0.96288784809E+02  0.00000000000E+00 0. -1.
       21   -1    0    0  504  503  0.00000000000E+00  0.00000000000E+00 -0.16466675357E+04  0.16466675357E+04  0.00000000000E+00 0. -1.
  1000006    1    1    2  501    0 -0.13101575524E+03  0.94710807078E+02 -0.72391313052E+03  0.82017405814E+03  0.35000000000E+03 0.  0.
 -1000006    1    1    2    0  503  0.99631696628E+02 -0.99003787342E+02 -0.78198286626E+03  0.86817361628E+03  0.35000000000E+03 0.  0.
       21    1    1    2  504  502  0.31384058616E+02  0.42929802639E+01 -0.44482754107E+02  0.54608646089E+02  0.00000000000E+00 0. -1.
<scales pt_clust_1="13000.00000" pt_clust_2="13000.00000" pt_clust_3="31.67631"></scales>
<clustering>
<clus scale="   31.676">  1  5  2 -1</clus>
<clus scale="  380.795">  2  4  1 -1</clus>
<clus scale="  380.795">  1  3  2 -1</clus>
</clustering>
</event>
<event>
 4   0  0.3464723E-02  0.4005818E+03  0.7816531E-02  0.1043578E+00
       21   -1    0    0  503  502  0.00000000000E+00  0.00000000000E+00  0.30462918567E+03  0.30462918567E+03  0.00000000000E+00 0.  1.
       21   -1    0    0  501  503  0.00000000000E+00  0.00000000000E+00 -0.56421921737E+03  0.56421921737E+03  0.00000000000E+00 0.  1.
  1000006    1    1    2  501    0 -0.18604712296E+03  0.57898733409E+02 -0.24173423165E+03  0.46786882141E+03  0.35000000000E+03 0.  0.
 -1000006    1    1    2    0  502  0.18604712296E+03 -0.57898733409E+02 -0.17855800054E+02  0.40097958163E+03  0.35000000000E+03 0.  0.
<scales pt_clust_1="13000.00000" pt_clust_2="13000.00000"></scales>
<clustering>
<clus scale="  400.582">  2  3  1 -1</clus>
<clus scale="  400.582">  1  3  2 -1</clus>
</clustering>
</event>
<event>
 4   0  0.3464723E-02  0.3520569E+03  0.7816531E-02  0.1061774E+00
       21   -1    0    0  501  502  0.00000000000E+00  0.00000000000E+00  0.44848132435E+03  0.44848132435E+03  0.00000000000E+00 0. -1.
       21   -1    0    0  502  503  0.00000000000E+00  0.00000000000E+00 -0.30329179628E+03  0.30329179628E+03  0.00000000000E+00 0. -1.
  1000006    1    1    2  501    0  0.36858411719E+02  0.92468347900E+01  0.18459726090E+03  0.39751754074E+03  0.35000000000E+03 0.  0.
 -1000006    1    1    2    0  503 -0.36858411719E+02 -0.92468347900E+01 -0.39407732829E+02  0.35425557988E+03  0.35000000000E+03 0.  0.
<scales pt_clust_1="13000.00000" pt_clust_2="13000.00000"></scales>
<clustering>
<clus scale="  352.057">  1  3  2 -1</clus>
<clus scale="  352.057">  1  3  2 -1</clus>
</clustering>
</event>
<event>
 6   2  0.3464723E-02  0.7332388E+03  0.7816531E-02  0.9662019E-01
        2   -1    0    0  501    0  0.00000000000E+00  0.00000000000E+00  0.11491506904E+04  0.11491506904E+04  0.00000000000E+00 0.  1.
       21   -1    0    0  502  503  0.00000000000E+00  0.00000000000E+00 -0.90984584446E+03  0.90984584446E+03  0.00000000000E+00 0. -1.
  1000006    1    1    2  501    0 -0.61971493140E+03  0.18869605530E+03  0.55884377419E+03  0.92436960218E+03  0.35000000000E+03 0.  0.
 -1000006    1    1    2    0  504  0.60042070471E+03 -0.21740509787E+03  0.72727927173E+02  0.73181920624E+03  0.35000000000E+03 0.  0.
       21    1    1    2  504  503 -0.32337741914E+02  0.18434866610E+02 -0.12585311834E+03  0.13124245218E+03  0.00000000000E+00 0. -1.
        2    1    1    2  502    0  0.51631968602E+02  0.10274175956E+02 -0.26641373708E+03  0.27156527425E+03  0.00000000000E+00 0.  1.
<scales pt_clust_1="13000.00000" pt_clust_2="13000.00000" pt_clust_3="37.22330" pt_clust_4="43.77661"></scales>
<clustering>
<clus scale="   37.223">  2  5  1 -1</clus>
<clus scale="   43.777">  2  6  1 -1</clus>
<clus scale=" 1405.483">  3  4 -1 -1</clus>
<clus scale="  733.239">  2  3  1 -1</clus>
</clustering>
</event>
<event>
 4   0  0.3464723E-02  0.4821099E+03  0.7816531E-02  0.1018557E+00
       -2   -1    0    0    0  501  0.00000000000E+00  0.00000000000E+00  0.27058207685E+03  0.27058207685E+03  0.00000000000E+00 0. -1.
        2   -1    0    0  502    0  0.00000000000E+00  0.00000000000E+00 -0.95759148072E+03  0.95759148072E+03  0.00000000000E+00 0.  1.
  1000006    1    1    2  502    0  0.14794298053E+03  0.29672015322E+03 -0.14646236817E+03  0.50386625220E+03  0.35000000000E+03 0.  0.
 -1000006    1    1    2    0  501 -0.14794298053E+03 -0.29672015322E+03 -0.54054703570E+03  0.72430730537E+03  0.35000000000E+03 0.  0.
<scales pt_clust_1="13000.00000" pt_clust_2="13000.00000"></scales>
<clustering>
<clus scale="  817.880">  3  4 -1 -1</clus>
<clus scale="  482.110">  2  3  1 -1</clus>
</clustering>
</event>
<event>
 5   1  0.3464723E-02  0.4051017E+03  0.7816531E-02  0.1042027E+00
        1   -1    0    0  501    0  0.00000000000E+00  0.00000000000E+00  0.13801330385E+04  0.13801330385E+04  0.00000000000E+00 0.  1.
       21   -1    0    0  502  503  0.00000000000E+00  0.00000000000E+00 -0.23259171245E+03  0.23259171245E+03  0.00000000000E+00 0. -1.
  1000006    1    1    2  501    0 -0.56489227256E+02  0.11492515978E+03  0.56626433668E+03  0.67790421458E+03  0.35000000000E+03 0.  0.
 -1000006    1    1    2    0  503 -0.83354249969E+02 -0.24134029519E+03  0.14054058554E+03  0.45546100300E+03  0.35000000000E+03 0.  0.
        1    1    1    2  502    0  0.13984347722E+03  0.12641513541E+03  0.44073640382E+03  0.47935953337E+03  0.00000000000E+00 0.  1.
<scales pt_clust_1="13000.00000" pt_clust_2="13000.00000" pt_clust_3="188.51256"></scales>
<clustering>
<clus scale="  188.513">  1  5  2 -1</clus>
<clus scale="  405.102">  2  4  1 -1</clus>
<clus scale="  405.102">  2  3  1 -1</clus>
</clustering>
</event>
<event>
 4   0  0.3464723E-02  0.4808819E+03  0.7816531E-02  0.1018893E+00
       21   -1    0    0  501  502  0.00000000000E+00  0.00000000000E+00  0.13832627676E+04  0.13832627676E+04  0.00000000000E+00 0. -1.
       21   -1    0    0  502  503  0.00000000000E+00  0.00000000000E+00 -0.24349079562E+03  0.24349079562E+03  0.00000000000E+00 0. -1.
  1000006    1    1    2  501    0  0.20353678238E+03  0.25946129696E+03  0.10252480255E+04  0.11324225802E+04  0.35000000000E+03 0.  0.
 -1000006    1    1    2    0  503 -0.20353678238E+03 -0.25946129696E+03  0.11452394643E+03  0.49433098295E+03  0.35000000000E+03 0.  0.
<scales pt_clust_1="13000.00000" pt_clust_2="13000.00000"></scales>
<clustering>
<clus scale="  480.882">  2  4  1 -1</clus>
<clus scale="  480.882">  1  3  2 -1</clus>
</clustering>
</event>
<event>
 5   1  0.3464723E-02  0.3718483E+03  0.7816531E-02  0.1053988E+00
       21   -1    0    0  504  502  0.00000000000E+00  0.00000000000E+00  0.42602943550E+03  0.42602943550E+03  0.00000000000E+00 0.  1.
       21   -1    0    0  501  503  0.00000000000E+00  0.00000000000E+00 -0.64529066317E+03  0.64529066317E+03  0.00000000000E+00 0.  1.
  1000006    1    1    2  501    0  0.12608947747E+03 -0.18870915585E+02 -0.45804393204E+03  0.59038877993E+03  0.35000000000E+03 0.  0.
 -1000006    1    1    2    0  502 -0.11521665403E+03  0.50860547249E+02  0.24655313839E+03  0.44626239219E+03  0.35000000000E+03 0.  0.
       21    1    1    2  504  503 -0.10872823440E+02 -0.31989631664E+02 -0.77704340260E+01  0.34668926555E+02  0.00000000000E+00 0. -1.
<scales pt_clust_1="13000.00000" pt_clust_2="13000.00000" pt_clust_3="33.78690"></scales>
<clustering>
<clus scale="   33.787">  2  5  1 -1</clus>
<clus scale="  371.848">  2  3  1 -1</clus>
<clus scale="  371.848">  1  3  2 -1</clus>
</clustering>
</event>
<event>
 4   0  0.3464723E-02  0.3956566E+03  0.7816531E-02  0.1045294E+00
       21   -1    0    0  501  502  0.00000000000E+00  0.00000000000E+00  0.24713505560E+03  0.24713505560E+03  0.00000000000E+00 0.  1.
       21   -1    0    0  502  503  0.00000000000E+00  0.00000000000E+00 -0.66424994538E+03  0.66424994538E+03  0.00000000000E+00 0. -1.
  1000006    1    1    2  501    0  0.18092440961E+03  0.36201261889E+02 -0.11040938870E+03  0.41077293785E+03  0.35000000000E+03 0.  0.
 -1000006    1    1    2    0  503 -0.18092440961E+03 -0.36201261889E+02 -0.30670550109E+03  0.50061206313E+03  0.35000000000E+03 0.  0.
<scales pt_clust_1="13000.00000" pt_clust_2="13000.00000"></scales>
<clustering>
<clus scale="  395.657">  1  3  2 -1</clus>
<clus scale="  395.657">  1  3  2 -1</clus>
</clustering>
</event>
<event>
 5   1  0.3464723E-02  0.6132729E+03  0.7816531E-02  0.9878245E-01
       21   -1    0    0  504  502  0.00000000000E+00  0.00000000000E+00  0.53930395190E+03  0.53930395190E+03  0.00000000000E+00 0.  1.
       21   -1    0    0  501  503  0.00000000000E+00  0.00000000000E+00 -0.11899356088E+04  0.11899356088E+04  0.00000000000E+00 0.  1.
  1000006    1    1    2  501    0 -0.30981846939E+03 -0.38726445982E+03 -0.34711440129E+03  0.69924934994E+03  0.35000000000E+03 0.  0.
 -1000006    1    1    2    0  502  0.25794373565E+03  0.43903234205E+03  0.94685434227E+02  0.62509975171E+03  0.35000000000E+03 0.  0.
       21    1    1    2  504  503  0.51874733737E+02 -0.51767882230E+02 -0.39820268988E+03  0.40489045908E+03  0.00000000000E+00 0.  1.
<scales pt_clust_1="13000.00000" pt_clust_2="13000.00000" pt_clust_3="73.28644"></scales>
<clustering>
<clus scale="   73.286">  2  5  1 -1</clus>
<clus scale="  613.273">  2  3  1 -1</clus>
<clus scale="  613.273">  1  3  2 -1</clus>
</clustering>
</event>
<event>
 6   2  0.3464723E-02  0.6667525E+03  0.7816531E-02  0.9775842E-01
       21   -1    0    0  504  502  0.00000000000E+00  0.00000000000E+00  0.95392593338E+03  0.95392593338E+03  0.00000000000E+00 0. -1.
       21   -1    0    0  505  503  0.00000000000E+00  0.00000000000E+00 -0.63193706192E+03  0.63193706192E+03  0.00000000000E+00 0.  1.
  1000006    1    1    2  501    0  0.51335240991E+03 -0.91282998613E+02  0.16108680150E+03  0.64831492364E+03  0.35000000000E+03 0.  0.
 -1000006    1    1    2    0  503 -0.61329724183E+03 -0.19430581035E+02  0.39474536348E+01  0.70641817410E+03  0.35000000000E+03 0.  0.
       21    1    1    2  504  501  0.35283750686E+02  0.92404387686E+00  0.10115792321E+02  0.36716837743E+02  0.00000000000E+00 0. -1.
       21    1    1    2  505  502  0.64661081228E+02  0.10978953577E+03  0.14683882401E+03  0.19441305981E+03  0.00000000000E+00 0. -1.
<scales pt_clust_1="13000.00000" pt_clust_2="13000.00000" pt_clust_3="35.29585" pt_clust_4="130.96028"></scales>
<clustering>
<clus scale="   35.296">  1  5  2 -1</clus>
<clus scale="  130.960">  1  6  2 -1</clus>
<clus scale="  666.752">  2  4  1 -1</clus>
<clus scale="  666.752">  1  3  2 -1</clus>
</clustering>
</event>
<event>
 6   2  0.3464723E-02  0.3607563E+03  0.7816531E-02  0.1058285E+00
       21   -1    0    0  504  502  0.00000000000E+00  0.00000000000E+00  0.55763207759E+03  0.55763207759E+03  0.00000000000E+00 0.  1.
       21   -1    0    0  505  503  0.00000000000E+00  0.00000000000E+00 -0.78649758961E+03  0.78649758961E+03  0.00000000000E+00 0.  1.
  1000006    1    1    2  501    0  0.13582193231E+03 -0.99072273905E+01 -0.19841807168E+03  0.42475343627E+03  0.35000000000E+03 0.  0.
 -1000006    1    1    2    0  503  0.13320049079E+02  0.11721490198E+03 -0.34969220412E+03  0.50862696996E+03  0.35000000000E+03 0.  0.
       21    1    1    2  504  501 -0.15587395142E+03 -0.72571523036E+02  0.12316230065E+03  0.21150004016E+03  0.00000000000E+00 0.  1.
       21    1    1    2  505  502  0.67319700334E+01 -0.34736151555E+02  0.19608246313E+03  0.19924922081E+03  0.00000000000E+00 0.  1.
<scales pt_clust_1="13000.00000" pt_clust_2="13000.00000" pt_clust_3="176.64064" pt_clust_4="35.38248"></scales>
<clustering>
<clus scale="   35.382">  1  6  2 -1</clus>
<clus scale="  176.641">  1  5  2 -1</clus>
<clus scale="  360.756">  1  3  2 -1</clus>
<clus scale="  360.756">  1  3  2 -1</clus>
</clustering>
</event>
<event>
 4   0  0.3464723E-02  0.5410997E+03  0.7816531E-02  0.1003575E+00
       21   -1    0    0  503  502  0.00000000000E+00  0.00000000000E+00  0.19159464841E+03  0.19159464841E+03  0.00000000000E+00 0.  1.
       21   -1    0    0  501  503  0.00000000000E+00  0.00000000000E+00 -0.15498363973E+04  0.15498363973E+04  0.00000000000E+00 0.  1.
  1000006    1    1    2  501    0 -0.35598412094E+03 -0.20872027142E+03 -0.78207527214E+03  0.95101555053E+03  0.35000000000E+03 0.  0.
 -1000006    1    1    2    0  502  0.35598412094E+03  0.20872027142E+03 -0.57616647673E+03  0.79041549515E+03  0.35000000000E+03 0.  0.
<scales pt_clust_1="13000.00000" pt_clust_2="13000.00000"></scales>
<clustering>
<clus scale="  541.100">  2  3  1 -1</clus>
<clus scale="  541.100">  1  3  2 -1</clus>
</clustering>
</event>
<event>
 5   1  0.3464723E-02  0.4305498E+03  0.7816531E-02  0.1033686E+00
       21   -1    0    0  501  503  0.00000000000E+00  0.00000000000E+00  0.29445881032E+03  0.29445881032E+03  0.00000000000E+00 0. -1.
        1   -1    0    0  503    0  0.00000000000E+00  0.00000000000E+00 -0.17701007978E+04  0.17701007978E+04  0.00000000000E+00 0. -1.
  1000006    1    1    2  501    0  0.24135993582E+03  0.79221621913E+02 -0.11492529676E+03  0.44748017591E+03  0.35000000000E+03 0.  0.
 -1000006    1    1    2    0  502 -0.72779636425E+02 -0.35872640081E+03 -0.57481698098E+03  0.76609142258E+03  0.35000000000E+03 0.  0.
        1    1    1    2  502    0 -0.16858029940E+03  0.27950477890E+03 -0.78589970976E+03  0.85098800965E+03  0.00000000000E+00 0. -1.
<scales pt_clust_1="13000.00000" pt_clust_2="13000.00000" pt_clust_3="326.40809"></scales>
<clustering>
<clus scale="  326.408">  2  5  1 -1</clus>
<clus scale="  430.550">  1  3  2 -1</clus>
<clus scale="  430.550">  1  3  2 -1</clus>
</clustering>
</event>
<event>
 6   2  0.3464723E-02  0.4446199E+03  0.7816531E-02  0.1029339E+00
       21   -1    0    0  505  502  0.00000000000E+00  0.00000000000E+00  0.29288753141E+03  0.29288753141E+03  0.00000000000E+00 0. -1.
       21   -1    0    0  504  503  0.00000000000E+00  0.00000000000E+00 -0.90961431974E+03  0.90961431974E+03  0.00000000000E+00 0. -1.
  1000006    1    1    2  501    0  0.18778775290E+03  0.12739408987E+03 -0.28115478772E+03  0.50303231400E+03  0.35000000000E+03 0.  0.
 -1000006    1    1    2    0  502 -0.28681095166E+03 -0.15791668457E+03 -0.30302234527E+03  0.56702799137E+03  0.35000000000E+03 0.  0.
       21    1    1    2  504  501  0.91384132018E+01  0.30001922502E+02 -0.28637162382E+02  0.42470142676E+02  0.00000000000E+00 0.  1.
       21    1    1    2  505  503  0.89884785560E+02  0.52067219303E+00 -0.39124929508E+01  0.89971403100E+02  0.00000000000E+00 0. -1.
<scales pt_clust_1="13000.00000" pt_clust_2="13000.00000" pt_clust_3="31.36281" pt_clust_4="90.40071"></scales>
<clustering>
<clus scale="   31.363">  2  5  1 -1</clus>
<clus scale="   90.401">  1  6  2 -1</clus>
<clus scale="  444.620">  1  4  2 -1</clus>
<clus scale="  444.620">  1  3  2 -1</clus>
</clustering>
</event>
<event>
 6   2  0.3464723E-02  0.4085291E+03  0.7816531E-02  0.1040866E+00
       21   -1    0    0  505  502  0.00000000000E+00  0.00000000000E+00  0.23302057964E+03  0.23302057964E+03  0.00000000000E+00 0. -1.
       21   -1    0    0  501  503  0.00000000000E+00  0.00000000000E+00 -0.11979470587E+04  0.11979470587E+04  0.00000000000E+00 0. -1.
  1000006    1    1    2  501    0 -0.12288014866E+03  0.18363686830E+03 -0.38760847523E+03  0.56706468802E+03  0.35000000000E+03 0.  0.
 -1000006    1    1    2    0  502  0.13895346756E+03 -0.15062475781E+03 -0.18707471632E+03  0.44664620596E+03  0.35000000000E+03 0.  0.
       21    1    1    2  504  503  0.29724590532E+02  0.16347306324E+02 -0.31280286684E+03  0.31463696415E+03  0.00000000000E+00 0. -1.
       21    1    1    2  505  504 -0.45797909427E+02 -0.49359416822E+02 -0.77440420685E+02  0.10261978022E+03  0.00000000000E+00 0. -1.
<scales pt_clust_1="13000.00000" pt_clust_2="13000.00000" pt_clust_3="33.92323" pt_clust_4="64.06406"></scales>
<clustering>
<clus scale="   33.923">  2  5  1 -1</clus>
<clus scale="   64.064">  2  6  1 -1</clus>
<clus scale="  408.529">  2  3  1 -1</clus>
<clus scale="  408.529">  1  3  2 -1</clus>
</clustering>
</event>
<event>
 6   2  0.3464723E-02  0.3746543E+03  0.7816531E-02  0.1052927E+00
       21   -1    0    0  501  503  0.00000000000E+00  0.00000000000E+00  0.85710495145E+03  0.85710495145E+03  0.00000000000E+00 0. -1.
        2   -1    0    0  504    0  0.00000000000E+00  0.00000000000E+00 -0.19193667142E+04  0.19193667142E+04  0.00000000000E+00 0. -1.
  1000006    1    1    2  501    0 -0.13599628290E+03  0.28955942553E+02  0.47462808395E+03  0.60589211386E+03  0.35000000000E+03 0.  0.
 -1000006    1    1    2    0  502  0.12947073562E+03  0.60707093300E+02  0.20092852857E+03  0.42815919487E+03  0.35000000000E+03 0.  0.
       21    1    1    2  504  503  0.22813888872E+02 -0.33331553367E+02 -0.13076461632E+04  0.13082698323E+04  0.00000000000E+00 0. -1.
        2    1    1    2  502    0 -0.16288341597E+02 -0.56331482486E+02 -0.43017221215E+03  0.43415052470E+03  0.00000000000E+00 0. -1.
<scales pt_clust_1="13000.00000" pt_clust_2="13000.00000" pt_clust_3="40.39141" pt_clust_4="79.89135"></scales>
<clustering>
<clus scale="   40.391">  2  5  1 -1</clus>
<clus scale="   79.891">  2  6  1 -1</clus>
<clus scale="  374.654">  1  3  2 -1</clus>
<clus scale="  374.654">  1  3  2 -1</clus>
</clustering>
</event>
<event>
 4   0  0.3464723E-02  0.3648688E+03  0.7816531E-02  0.1056672E+00
       21   -1    0    0  503  502  0.00000000000E+00  0.00000000000E+00  0.53049825022E+03  0.53049825022E+03  0.00000000000E+00 0.  1.
       21   -1    0    0  501  503  0.00000000000E+00  0.00000000000E+00 -0.25245340749E+03  0.25245340749E+03  0.00000000000E+00 0.  1.
  1000006    1    1    2  501    0  0.95338544940E+02  0.39240469736E+02  0.10882586200E+03  0.38075230906E+03  0.35000000000E+03 0.  0.
 -1000006    1    1    2    0  502 -0.95338544940E+02 -0.39240469736E+02  0.16921898073E+03  0.40219934865E+03  0.35000000000E+03 0.  0.
<scales pt_clust_1="13000.00000" pt_clust_2="13000.00000"></scales>
<clustering>
<clus scale="  364.869">  2  3  1 -1</clus>
<clus scale="  364.869">  1  3  2 -1</clus>
</clustering>
</event>
<event>
 6   2  0.3464723E-02  0.4489276E+03  0.7816531E-02  0.1028042E+00
        1   -1    0    0  504    0  0.00000000000E+00  0.00000000000E+00  0.13890430574E+04  0.13890430574E+04  0.00000000000E+00 0.  1.
       21   -1    0    0  501  503  0.00000000000E+00  0.00000000000E+00 -0.48853113479E+03  0.48853113479E+03  0.00000000000E+00 0. -1.
  1000006    1    1    2  501    0 -0.19967104640E+03  0.15950044047E+03 -0.27645447295E+03  0.51403890212E+03  0.35000000000E+03 0.  0.
 -1000006    1    1    2    0  502  0.22804015950E+03 -0.12076855429E+03  0.88400070784E+03  0.98516222497E+03  0.35000000000E+03 0.  0.
       21    1    1    2  504  503 -0.36959014816E+02  0.71747055293E+01 -0.32400959250E+02  0.49671594860E+02  0.00000000000E+00 0.  1.
        1    1    1    2  502    0  0.85899017185E+01 -0.45906591702E+02  0.32536664694E+03  0.32870147020E+03  0.00000000000E+00 0.  1.
<scales pt_clust_1="13000.00000" pt_clust_2="13000.00000" pt_clust_3="37.64897" pt_clust_4="46.65191"></scales>
<clustering>
<clus scale="   37.649">  2  5  1 -1</clus>
<clus scale="   46.652">  1  6  2 -1</clus>
<clus scale="  448.928">  1  4  2 -1</clus>
<clus scale="  448.928">  2  3  1 -1</clus>
</clustering>
</event>
<event>
 6   2  0.3464723E-02  0.3835446E+03  0.7816531E-02  0.1049631E+00
        1   -1    0    0  504    0  0.00000000000E+00  0.00000000000E+00  0.10298270260E+04  0.10298270260E+04  0.00000000000E+00 0.  1.
       21   -1    0    0  501  503  0.00000000000E+00  0.00000000000E+00 -0.40261760781E+03  0.40261760781E+03  0.00000000000E+00 0.  1.
  1000006    1    1    2  501    0  0.17297120630E+03  0.94135775158E+01  0.16076935719E+03  0.42232030482E+03  0.35000000000E+03 0.  0.
 -1000006    1    1    2    0  502 -0.11199708326E+03 -0.11961265754E+03  0.24205313240E+03  0.45600466380E+03  0.35000000000E+03 0.  0.
       21    1    1    2  504  503 -0.15054709177E+02  0.32874433304E+02 -0.15759722122E+03  0.16169185747E+03  0.00000000000E+00 0. -1.
        1    1    1    2  502    0 -0.45919413862E+02  0.77324646719E+02  0.38198414980E+03  0.39242780770E+03  0.00000000000E+00 0.  1.
<scales pt_clust_1="13000.00000" pt_clust_2="13000.00000" pt_clust_3="36.15761" pt_clust_4="90.70432"></scales>
<clustering>
<clus scale="   36.158">  2  5  1 -1</clus>
<clus scale="   90.704">  1  6  2 -1</clus>
<clus scale="  383.545">  2  3  1 -1</clus>
<clus scale="  383.545">  2  3  1 -1</clus>
</clustering>
</event>
<event>
 6   2  0.3464723E-02  0.4052624E+03  0.7816531E-02  0.1041973E+00
       21   -1    0    0  504  502  0.00000000000E+00  0.00000000000E+00  0.36981319888E+04  0.36981319888E+04  0.00000000000E+00 0.  1.
       21   -1    0    0  505  503  0.00000000000E+00  0.00000000000E+00 -0.15583282181E+03  0.15583282181E+03  0.00000000000E+00 0.  1.
  1000006    1    1    2  501    0 -0.11115953721E+03  0.27739396865E+03  0.77785469773E+03  0.90380406468E+03  0.35000000000E+03 0.  0.
 -1000006    1    1    2    0  503 -0.17676087835E+03 -0.13962057437E+03  0.48680744497E+03  0.64048403679E+03  0.35000000000E+03 0.  0.
       21    1    1    2  504  501 -0.21606439598E+02  0.21264279471E+02  0.10287799978E+03  0.10725152983E+03  0.00000000000E+00 0.  1.
       21    1    1    2  505  502  0.30952685516E+03 -0.15903767375E+03  0.21747590245E+04  0.22024251793E+04  0.00000000000E+00 0.  1.
<scales pt_clust_1="13000.00000" pt_clust_2="13000.00000" pt_clust_3="30.31514" pt_clust_4="330.41450"></scales>
<clustering>
<clus scale="   30.315">  1  5  2 -1</clus>
<clus scale="  330.414">  1  6  2 -1</clus>
<clus scale="  405.262">  2  4  1 -1</clus>
<clus scale="  405.262">  1  3  2 -1</clus>
</clustering>
</event>
<event>
 6   2  0.3464723E-02  0.3829422E+03  0.7816531E-02  0.1049852E+00
       21   -1    0    0  505  502  0.00000000000E+00  0.00000000000E+00  0.20658348752E+04  0.20658348752E+04  0.00000000000E+00 0.  1.
       21   -1    0    0  501  503  0.00000000000E+00  0.00000000000E+00 -0.11363310378E+03  0.11363310378E+03  0.00000000000E+00 0.  1.
  1000006    1    1    2  501    0 -0.96187506130E+02  0.11480045573E+03  0.78325291756E+03  0.87087100872E+03  0.35000000000E+03 0.  0.
 -1000006    1    1    2    0  502  0.79538480570E+02 -0.14371085844E+03  0.89122722803E+03  0.97147576022E+03  0.35000000000E+03 0.  0.
       21    1    1    2  504  503 -0.31475898242E+02 -0.32219959373E+02 -0.36510224227E+01  0.45190573319E+02  0.00000000000E+00 0.  1.
       21    1    1    2  505  504  0.48124923802E+02  0.61130362078E+02  0.28137264823E+03  0.29193063668E+03  0.00000000000E+00 0.  1.
<scales pt_clust_1="13000.00000" pt_clust_2="13000.00000" pt_clust_3="45.04285" pt_clust_4="75.15096"></scales>
<clustering>
<clus scale="   45.043">  2  5  1 -1</clus>
<clus scale="   75.151">  1  6  2 -1</clus>
<clus scale="  382.942">  2  3  1 -1</clus>
<clus scale="  382.942">  1  3  2 -1</clus>
</clustering>
</event>
<event>
 5   1  0.3464723E-02  0.4010964E+03  0.7816531E-02  0.1043401E+00
       21   -1    0    0  504  502  0.00000000000E+00  0.00000000000E+00  0.47747541103E+03  0.47747541103E+03  0.00000000000E+00 0. -1.
       21   -1    0    0  501  503  0.00000000000E+00  0.00000000000E+00 -0.73456894599E+03  0.73456894599E+03  0.00000000000E+00 0. -1.
  1000006    1    1    2  501    0 -0.23363334033E+03  0.80969996823E+02 -0.20926834033E+03  0.47690032120E+03  0.35000000000E+03 0.  0.
 -1000006    1    1    2    0  502  0.18249897995E+03  0.10454676038E+02  0.21685388329E+03  0.45048949448E+03  0.35000000000E+03 0.  0.
       21    1    1    2  504  503  0.51134360378E+02 -0.91424672861E+02 -0.26467907792E+03  0.28465454135E+03  0.00000000000E+00 0. -1.
<scales pt_clust_1="13000.00000" pt_clust_2="13000.00000" pt_clust_3="104.75301"></scales>
<clustering>
<clus scale="  104.753">  2  5  1 -1</clus>
<clus scale="  401.096">  2  3  1 -1</clus>
<clus scale="  401.096">  1  3  2 -1</clus>
</clustering>
</event>
<event>
 6   2  0.3464723E-02  0.4445923E+03  0.7816531E-02  0.1029347E+00
       21   -1    0    0  505  502  0.00000000000E+00  0.00000000000E+00  0.42448694801E+03  0.42448694801E+03  0.00000000000E+00 0. -1.
       21   -1    0    0  501  503  0.00000000000E+00  0.00000000000E+00 -0.65304296336E+03  0.65304296336E+03  0.00000000000E+00 0. -1.
  1000006    1    1    2  501    0 -0.58969166487E+02  0.27170791036E+03 -0.21952725225E+03  0.49799072846E+03  0.35000000000E+03 0.  0.
 -1000006    1    1    2    0  504  0.14660087755E+03 -0.23500290146E+03 -0.34652835236E+02  0.44768180662E+03  0.35000000000E+03 0.  0.
       21    1    1    2  504  502 -0.25839566268E+02 -0.15413186544E+02  0.53042464761E+02  0.60981575679E+02  0.00000000000E+00 0. -1.
       21    1    1    2  505  503 -0.61792144798E+02 -0.21291822358E+02 -0.27418392617E+02  0.70875800607E+02  0.00000000000E+00 0. -1.
<scales pt_clust_1="13000.00000" pt_clust_2="13000.00000" pt_clust_3="30.08736" pt_clust_4="67.09999"></scales>
<clustering>
<clus scale="   30.087">  1  5  2 -1</clus>
<clus scale="   67.100">  2  6  1 -1</clus>
<clus scale="  444.592">  2  3  1 -1</clus>
<clus scale="  444.592">  1  3  2 -1</clus>
</clustering>
</event>
<event>
 6   2  0.3464723E-02  0.4273324E+03  0.7816531E-02  0.1034706E+00
       21   -1    0    0  504  503  0.00000000000E+00  0.00000000000E+00  0.85621642447E+03  0.85621642447E+03  0.00000000000E+00 0. -1.
        1   -1    0    0  501    0  0.00000000000E+00  0.00000000000E+00 -0.11867689489E+04  0.11867689489E+04  0.00000000000E+00 0. -1.
  1000006    1    1    2  501    0  0.14532528954E+03  0.36364310191E+03  0.13776254473E+03  0.54298643084E+03  0.35000000000E+03 0.  0.
 -1000006    1    1    2    0  503 -0.13735445858E+03 -0.13415287252E+03  0.38936202355E+03  0.55764327834E+03  0.35000000000E+03 0.  0.
       21    1    1    2  504  502 -0.95041505735E+02 -0.22976655864E+03 -0.36249859449E+03  0.43958024328E+03  0.00000000000E+00 0. -1.
        1    1    1    2  502    0  0.87070674778E+02  0.27632924709E+00 -0.49517849820E+03  0.50277542088E+03  0.00000000000E+00 0. -1.
<scales pt_clust_1="13000.00000" pt_clust_2="13000.00000" pt_clust_3="233.83472" pt_clust_4="87.07111"></scales>
<clustering>
<clus scale="   87.071">  2  6  1 -1</clus>
<clus scale="  233.835">  2  5  1 -1</clus>
<clus scale="  427.332">  2  3  1 -1</clus>
<clus scale="  427.332">  1  3  2 -1</clus>
</clustering>
</event>
<event>
 6   2  0.3464723E-02  0.5263685E+03  0.7816531E-02  0.1015457E+00
        1   -1    0    0  502    0  0.00000000000E+00  0.00000000000E+00  0.28783802171E+04  0.28783802171E+04  0.00000000000E+00 0.  1.
        2   -1    0    0  501    0  0.00000000000E+00  0.00000000000E+00 -0.56084468573E+03  0.56084468573E+03  0.00000000000E+00 0. -1.
  1000006    1    1    2  501    0  0.23153143747E+02  0.11018663027E+03 -0.12841140563E+03  0.38944402762E+03  0.35000000000E+03 0.  0.
 -1000006    1    1    2    0  503 -0.14361593381E+03  0.99582875419E+02  0.27494121981E+03  0.47815788174E+03  0.35000000000E+03 0.  0.
        2    1    1    2  502    0 -0.18649377705E+03  0.10337814219E+03 -0.11614917570E+03  0.24281186169E+03  0.00000000000E+00 0. -1.
        1    1    1    2  503    0  0.30695656711E+03 -0.31314764787E+03  0.22871548929E+04  0.23288111318E+04  0.00000000000E+00 0.  1.
<scales pt_clust_1="13000.00000" pt_clust_2="13000.00000" pt_clust_3="213.22985" pt_clust_4="393.14601"></scales>
<clustering>
<clus scale="  213.230">  2  5  1 -1</clus>
<clus scale="  407.113">  2  3  1 -1</clus>
<clus scale="  393.146">  1  6  2 -1</clus>
<clus scale="  526.368">  2  3  1 -1</clus>
</clustering>
</event>
<event>
 6   2  0.3464723E-02  0.4909921E+03  0.7816531E-02  0.1016157E+00
       21   -1    0    0  505  502  0.00000000000E+00  0.00000000000E+00  0.15317170020E+04  0.15317170020E+04  0.00000000000E+00 0. -1.
       21   -1    0    0  501  503  0.00000000000E+00  0.00000000000E+00 -0.28514433576E+03  0.28514433576E+03  0.00000000000E+00 0. -1.
  1000006    1    1    2  501    0 -0.22061396000E+02 -0.38171920331E+03  0.31303758004E+03  0.60554833159E+03  0.35000000000E+03 0.  0.
 -1000006    1    1    2    0  502  0.47480076629E+02  0.30887826600E+03  0.68604524529E+03  0.83115475061E+03  0.35000000000E+03 0.  0.
       21    1    1    2  504  503 -0.43357882655E+02  0.46199556669E+02 -0.50141482508E+02  0.80798968390E+02  0.00000000000E+00 0. -1.
       21    1    1    2  505  504  0.17939202027E+02  0.26641380644E+02  0.29763132341E+03  0.29935928716E+03  0.00000000000E+00 0. -1.
<scales pt_clust_1="13000.00000" pt_clust_2="13000.00000" pt_clust_3="63.44861" pt_clust_4="32.11819"></scales>
<clustering>
<clus scale="   32.118">  1  6  2 -1</clus>
<clus scale="   63.449">  2  5  1 -1</clus>
<clus scale="  490.992">  1  4  2 -1</clus>
<clus scale="  490.992">  1  3  2 -1</clus>
</clustering>
</event>
<event>
 6   2  0.3464723E-02  0.5797804E+03  0.7816531E-02  0.9948266E-01
       21   -1    0    0  505  502  0.00000000000E+00  0.00000000000E+00  0.56102460781E+03  0.56102460781E+03  0.00000000000E+00 0.  1.
       21   -1    0    0  501  503  0.00000000000E+00  0.00000000000E+00 -0.16410702396E+04  0.16410702396E+04  0.00000000000E+00 0. -1.
  1000006    1    1    2  501    0 -0.42384703453E+03 -0.56978125922E+02 -0.16614326501E+03  0.57705840261E+03  0.35000000000E+03 0.  0.
 -1000006    1    1    2    0  502  0.47588563380E+03  0.10710408275E+03  0.70121254144E+02  0.60444636758E+03  0.35000000000E+03 0.  0.
       21    1    1    2  504  503 -0.52601949439E+02  0.80829686466E+01 -0.95326932666E+03  0.95475374239E+03  0.00000000000E+00 0. -1.
       21    1    1    2  505  504  0.56335017182E+00 -0.58208925476E+02 -0.30754294270E+02  0.65836334835E+02  0.00000000000E+00 0. -1.
<scales pt_clust_1="13000.00000" pt_clust_2="13000.00000" pt_clust_3="53.21935" pt_clust_4="57.72590"></scales>
<clustering>
<clus scale="   53.219">  2  5  1 -1</clus>
<clus scale="   57.726">  2  6  1 -1</clus>
<clus scale="  579.780">  2  3  1 -1</clus>
<clus scale="  579.780">  1  3  2 -1</clus>
</clustering>
</event>
<event>
 5   1  0.3464723E-02  0.3845606E+03  0.7816531E-02  0.1049261E+00
        2   -1    0    0  501    0  0.00000000000E+00  0.00000000000E+00  0.95433967449E+03  0.95433967449E+03  0.00000000000E+00 0. -1.
       21   -1    0    0  502  503  0.00000000000E+00  0.00000000000E+00 -0.21397870767E+03  0.21397870767E+03  0.00000000000E+00 0. -1.
  1000006    1    1    2  501    0 -0.65627400492E+02 -0.12007493781E+03  0.28962215501E+03  0.47445330546E+03  0.35000000000E+03 0.  0.
 -1000006    1    1    2    0  503 -0.85644249118E+01  0.19232161181E+03  0.25936110829E+03  0.47626582518E+03  0.35000000000E+03 0.  0.
        2    1    1    2  502    0  0.74191825404E+02 -0.72246674007E+02  0.19137770351E+03  0.21759925152E+03  0.00000000000E+00 0. -1.
<scales pt_clust_1="13000.00000" pt_clust_2="13000.00000" pt_clust_3="103.55679"></scales>
<clustering>
<clus scale="  103.557">  1  5  2 -1</clus>
<clus scale="  384.561">  1  3  2 -1</clus>
<clus scale="  384.561">  2  3  1 -1</clus>
</clustering>
</event>
<event>
 6   2  0.3464723E-02  0.5103761E+03  0.7816531E-02  0.1011106E+00
        2   -1    0    0  503    0  0.00000000000E+00  0.00000000000E+00  0.49330940929E+04  0.49330940929E+04  0.00000000000E+00 0.  1.
       -2   -1    0    0    0  501  0.00000000000E+00  0.00000000000E+00 -0.18514025013E+03  0.18514025013E+03  0.00000000000E+00 0. -1.
  1000006    1    1    2  502    0 -0.34925541812E+03 -0.97010328498E+02  0.88018177565E+03  0.10142042739E+04  0.35000000000E+03 0.  0.
 -1000006    1    1    2    0  504 -0.26209299352E+02 -0.29660091717E+03  0.23271745100E+04  0.23721088153E+04  0.35000000000E+03 0.  0.
       21    1    1    2  503  502  0.25912498757E+03  0.42676657048E+03  0.15312478608E+04  0.16105885495E+04  0.00000000000E+00 0.  1.
       21    1    1    2  504  501  0.11633972990E+03 -0.33155324814E+02  0.93496963270E+01  0.12133270433E+03  0.00000000000E+00 0. -1.
<scales pt_clust_1="13000.00000" pt_clust_2="13000.00000" pt_clust_3="510.37607" pt_clust_4="120.97193"></scales>
<clustering>
<clus scale="  120.972">  2  6  1 -1</clus>
<clus scale="  510.376">  1  5  2 -1</clus>
<clus scale="  718.734">  3  4 -1 -1</clus>
<clus scale="  510.376">  1  3  2 -1</clus>
</clustering>
</event>
<event>
 5   1  0.3464723E-02  0.5734774E+03  0.7816531E-02  0.9962013E-01
       21   -1    0    0  504  502  0.00000000000E+00  0.00000000000E+00  0.86959041540E+03  0.86959041540E+03  0.00000000000E+00 0. -1.
       21   -1    0    0  502  503  0.00000000000E+00  0.00000000000E+00 -0.57131644777E+03  0.57131644777E+03  0.00000000000E+00 0.  1.
  1000006    1    1    2  501    0 -0.42417523005E+03  0.23852289108E+03  0.45723986950E+02  0.60117258615E+03  0.35000000000E+03 0.  0.
 -1000006    1    1    2    0  503  0.31756930617E+03 -0.29354595953E+03 -0.41762784541E+01  0.55636043702E+03  0.35000000000E+03 0.  0.
       21    1    1    2  504  501  0.10660592388E+03  0.55023068449E+02  0.25672625913E+03  0.28337384000E+03  0.00000000000E+00 0. -1.
<scales pt_clust_1="13000.00000" pt_clust_2="13000.00000" pt_clust_3="119.96817"></scales>
<clustering>
<clus scale="  119.968">  1  5  2 -1</clus>
<clus scale="  573.477">  1  3  2 -1</clus>
<clus scale="  573.477">  1  3  2 -1</clus>
</clustering>
</event>
<event>
 4   0  0.3464723E-02  0.4169617E+03  0.7816531E-02  0.1038060E+00
       21   -1    0    0  503  502  0.00000000000E+00  0.00000000000E+00  0.13246849791E+03  0.13246849791E+03  0.00000000000E+00 0.  1.
       21   -1    0    0  501  503  0.00000000000E+00  0.00000000000E+00 -0.15411984026E+04  0.15411984026E+04  0.00000000000E+00 0.  1.
  1000006    1    1    2  501    0  0.20109520574E+03 -0.10448833718E+03 -0.10267666265E+04  0.11081998013E+04  0.35000000000E+03 0.  0.
 -1000006    1    1    2    0  502 -0.20109520574E+03  0.10448833718E+03 -0.38196327822E+03  0.56546709921E+03  0.35000000000E+03 0.  0.
<scales pt_clust_1="13000.00000" pt_clust_2="13000.00000"></scales>
<clustering>
<clus scale="  416.962">  2  3  1 -1</clus>
<clus scale="  416.962">  1  3  2 -1</clus>
</clustering>
</event>
<event>
 5   1  0.3464723E-02  0.4142494E+03  0.7816531E-02  0.1038954E+00
       21   -1    0    0  501  503  0.00000000000E+00  0.00000000000E+00  0.29654457759E+03  0.29654457759E+03  0.00000000000E+00 0.  1.
        2   -1    0    0  503    0  0.00000000000E+00  0.00000000000E+00 -0.22692646602E+04  0.22692646602E+04  0.00000000000E+00 0.  1.
  1000006    1    1    2  501    0  0.17077954204E+03  0.10550731696E+03 -0.80555754211E+01  0.40356206240E+03  0.35000000000E+03 0.  0.
 -1000006    1    1    2    0  502 -0.15477108550E+03 -0.25703760465E+03 -0.46474191621E+03  0.65460481803E+03  0.35000000000E+03 0.  0.
        2    1    1    2  502    0 -0.16008456541E+02  0.15153028769E+03 -0.14999225909E+04  0.15076423573E+04  0.00000000000E+00 0.  1.
<scales pt_clust_1="13000.00000" pt_clust_2="13000.00000" pt_clust_3="152.37355"></scales>
<clustering>
<clus scale="  152.374">  2  5  1 -1</clus>
<clus scale="  414.249">  1  3  2 -1</clus>
<clus scale="  414.249">  1  3  2 -1</clus>
</clustering>
</event>
<event>
 4   0  0.3464723E-02  0.4330036E+03  0.7816531E-02  0.1032915E+00
       21   -1    0    0  503  502  0.00000000000E+00  0.00000000000E+00  0.68044236878E+03  0.68044236878E+03  0.00000000000E+00 0.  1.
       21   -1    0    0  501  503  0.00000000000E+00  0.00000000000E+00 -0.28405248671E+03  0.28405248671E+03  0.00000000000E+00 0.  1.
  1000006    1    1    2  501    0 -0.19714660756E+02 -0.25417205533E+03  0.11473349094E+03  0.44794628641E+03  0.35000000000E+03 0.  0.
 -1000006    1    1    2    0  502  0.19714660756E+02  0.25417205533E+03  0.28165639113E+03  0.51654856908E+03  0.35000000000E+03 0.  0.
<scales pt_clust_1="13000.00000" pt_clust_2="13000.00000"></scales>
<clustering>
<clus scale="  433.004">  1  4  2 -1</clus>
<clus scale="  433.004">  1  3  2 -1</clus>
</clustering>
</event>
<event>
 4   0  0.3464723E-02  0.4174696E+03  0.7816531E-02  0.1037893E+00
        3   -1    0    0  502    0  0.00000000000E+00  0.00000000000E+00  0.11209881069E+03  0.11209881069E+03  0.00000000000E+00 0. -1.
       -3   -1    0    0    0  501  0.00000000000E+00  0.00000000000E+00 -0.15690358508E+04  0.15690358508E+04  0.00000000000E+00 0.  1.
  1000006    1    1    2  502    0 -0.89906913691E+02 -0.20903976964E+03 -0.64814330090E+03  0.77095435463E+03  0.35000000000E+03 0.  0.
 -1000006    1    1    2    0  501  0.89906913691E+02  0.20903976964E+03 -0.80879373920E+03  0.91018030686E+03  0.35000000000E+03 0.  0.
<scales pt_clust_1="13000.00000" pt_clust_2="13000.00000"></scales>
<clustering>
<clus scale="  579.697">  3  4 -1 -1</clus>
<clus scale="  417.470">  1  3  2 -1</clus>
</clustering>
</event>
<event>
 5   1  0.3464723E-02  0.3975628E+03  0.7816531E-02  0.1044627E+00
       21   -1    0    0  504  502  0.00000000000E+00  0.00000000000E+00  0.44894227278E+03  0.44894227278E+03  0.00000000000E+00 0.  1.
       21   -1    0    0  501  503  0.00000000000E+00  0.00000000000E+00 -0.17429302984E+04  0.17429302984E+04  0.00000000000E+00 0. -1.
  1000006    1    1    2  501    0 -0.19246956895E+03  0.27334804221E+02 -0.13148093352E+04  0.13744145351E+04  0.35000000000E+03 0.  0.
 -1000006    1    1    2    0  502  0.17409185854E+03  0.37699411443E+02 -0.29709538942E+03  0.49243770291E+03  0.35000000000E+03 0.  0.
       21    1    1    2  504  503  0.18377710403E+02 -0.65034215664E+02  0.31791669900E+03  0.32502033313E+03  0.00000000000E+00 0.  1.
<scales pt_clust_1="13000.00000" pt_clust_2="13000.00000" pt_clust_3="67.58098"></scales>
<clustering>
<clus scale="   67.581">  1  5  2 -1</clus>
<clus scale="  397.563">  2  3  1 -1</clus>
<clus scale="  397.563">  1  3  2 -1</clus>
</clustering>
</event>
<event>
 5   1  0.3464723E-02  0.3532330E+03  0.7816531E-02  0.1061296E+00
       21   -1    0    0  504  502  0.00000000000E+00  0.00000000000E+00  0.60279344604E+03  0.60279344604E+03  0.00000000000E+00 0.  1.
       21   -1    0    0  501  503  0.00000000000E+00  0.00000000000E+00 -0.96430129587E+03  0.96430129587E+03  0.00000000000E+00 0.  1.
  1000006    1    1    2  501    0  0.31215355947E+02  0.88313544737E+02 -0.45544541514E+03  0.58198299528E+03  0.35000000000E+03 0.  0.
 -1000006    1    1    2    0  502  0.18174566592E+02 -0.15666226405E+01 -0.37053811372E+03  0.51003064898E+03  0.35000000000E+03 0.  0.
       21    1    1    2  504  503 -0.49389922539E+02 -0.86746922097E+02  0.46447567903E+03  0.47508109766E+03  0.00000000000E+00 0.  1.
<scales pt_clust_1="13000.00000" pt_clust_2="13000.00000" pt_clust_3="99.82181"></scales>
<clustering>
<clus scale="   99.822">  1  5  2 -1</clus>
<clus scale="  353.233">  2  3  1 -1</clus>
<clus scale="  353.233">  1  3  2 -1</clus>
</clustering>
</event>
<event>
 4   0  0.3464723E-02  0.3705108E+03  0.7816531E-02  0.1054498E+00
       21   -1    0    0  503  502  0.00000000000E+00  0.00000000000E+00  0.13568466183E+04  0.13568466183E+04  0.00000000000E+00 0.  1.
       21   -1    0    0  501  503  0.00000000000E+00  0.00000000000E+00 -0.11884374380E+03  0.11884374380E+03  0.00000000000E+00 0.  1.
  1000006    1    1    2  501    0  0.10427640039E+02 -0.12111776951E+03  0.33449878338E+03  0.49916699195E+03  0.35000000000E+03 0.  0.
 -1000006    1    1    2    0  502 -0.10427640039E+02  0.12111776951E+03  0.90350409109E+03  0.97652337012E+03  0.35000000000E+03 0.  0.
<scales pt_clust_1="13000.00000" pt_clust_2="13000.00000"></scales>
<clustering>
<clus scale="  370.511">  2  3  1 -1</clus>
<clus scale="  370.511">  1  3  2 -1</clus>
</clustering>
</event>
<event>
 4   0  0.3464723E-02  0.3960133E+03  0.7816531E-02  0.1045169E+00
       21   -1    0    0  503  502  0.00000000000E+00  0.00000000000E+00  0.46103264185E+03  0.46103264185E+03  0.00000000000E+00 0. -1.
       21   -1    0    0  501  503  0.00000000000E+00  0.00000000000E+00 -0.40174210374E+03  0.40174210374E+03  0.00000000000E+00 0. -1.
  1000006    1    1    2  501    0 -0.44069209455E+02 -0.17995670955E+03 -0.13924646756E+03  0.41978100393E+03  0.35000000000E+03 0.  0.
 -1000006    1    1    2    0  502  0.44069209455E+02  0.17995670955E+03  0.19853700567E+03  0.44299374166E+03  0.35000000000E+03 0.  0.
<scales pt_clust_1="13000.00000" pt_clust_2="13000.00000"></scales>
<clustering>
<clus scale="  396.013">  2  3  1 -1</clus>
<clus scale="  396.013">  1  3  2 -1</clus>
</clustering>
</event>
<event>
 6   2  0.3464723E-02  0.5289080E+03  0.7816531E-02  0.1006497E+00
       21   -1    0    0  504  502  0.00000000000E+00  0.00000000000E+00  0.23163356889E+04  0.23163356889E+04  0.00000000000E+00 0.  1.
       21   -1    0    0  505  503  0.00000000000E+00  0.00000000000E+00 -0.23545890846E+03  0.23545890846E+03  0.00000000000E+00 0.  1.
  1000006    1    1    2  501    0  0.35395141606E+03 -0.19834692058E+03  0.14811199085E+04  0.15750680268E+04  0.35000000000E+03 0.  0.
 -1000006    1    1    2    0  503 -0.43178531744E+03  0.72788151938E+02  0.40031608063E+03  0.68883208392E+03  0.35000000000E+03 0.  0.
       21    1    1    2  504  501 -0.17562422748E+02  0.24344219640E+02  0.12811832463E+03  0.13158793572E+03  0.00000000000E+00 0.  1.
       21    1    1    2  505  502  0.95396324128E+02  0.10121454900E+03  0.71322466648E+02  0.15630655084E+03  0.00000000000E+00 0.  1.
<scales pt_clust_1="13000.00000" pt_clust_2="13000.00000" pt_clust_3="30.01799" pt_clust_4="139.38933"></scales>
<clustering>
<clus scale="   30.018">  1  5  2 -1</clus>
<clus scale="  139.389">  2  6  1 -1</clus>
<clus scale="  528.908">  1  3  2 -1</clus>
<clus scale="  528.908">  1  3  2 -1</clus>
</clustering>
</event>
<event>
 5   1  0.3464723E-02  0.4880392E+03  0.7816531E-02  0.1016949E+00
       21   -1    0    0  501  502  0.00000000000E+00  0.00000000000E+00  0.11689994168E+04  0.11689994168E+04  0.00000000000E+00 0.  1.
       21   -1    0    0  504  503  0.00000000000E+00  0.00000000000E+00 -0.24142823446E+03  0.24142823446E+03  0.00000000000E+00 0.  1.
  1000006    1    1    2  501    0  0.67084017585E+01  0.35429939524E+03  0.59105687175E+03  0.77293032659E+03  0.35000000000E+03 0.  0.
 -1000006    1    1    2    0  503 -0.23764195593E+02 -0.32093244718E+03  0.35720494330E+03  0.59469130157E+03  0.35000000000E+03 0.  0.
       21    1    1    2  504  502  0.17055793834E+02 -0.33366948054E+02 -0.20690632756E+02  0.42806023053E+02  0.00000000000E+00 0. -1.
<scales pt_clust_1="13000.00000" pt_clust_2="13000.00000" pt_clust_3="37.47337"></scales>
<clustering>
<clus scale="   37.473">  2  5  1 -1</clus>
<clus scale="  488.039">  1  3  2 -1</clus>
<clus scale="  488.039">  1  3  2 -1</clus>
</clustering>
</event>
<event>
 4   0  0.3464723E-02  0.3680184E+03  0.7816531E-02  0.1055453E+00
       21   -1    0    0  503  502  0.00000000000E+00  0.00000000000E+00  0.62210009966E+03  0.62210009966E+03  0.00000000000E+00 0.  1.
       21   -1    0    0  501  503  0.00000000000E+00  0.00000000000E+00 -0.24478777121E+03  0.24478777121E+03  0.00000000000E+00 0.  1.
  1000006    1    1    2  501    0 -0.49530584593E+02 -0.10239274311E+03  0.44496844302E+02  0.37069869410E+03  0.35000000000E+03 0.  0.
 -1000006    1    1    2    0  502  0.49530584593E+02  0.10239274311E+03  0.33281548415E+03  0.49618917677E+03  0.35000000000E+03 0.  0.
<scales pt_clust_1="13000.00000" pt_clust_2="13000.00000"></scales>
<clustering>
<clus scale="  368.018">  2  3  1 -1</clus>
<clus scale="  368.018">  1  3  2 -1</clus>
</clustering>
</event>
<event>
 6   2  0.3464723E-02  0.3820689E+03  0.7816531E-02  0.1050172E+00
       21   -1    0    0  504  502  0.00000000000E+00  0.00000000000E+00  0.27242164549E+03  0.27242164549E+03  0.00000000000E+00 0.  1.
       21   -1    0    0  502  503  0.00000000000E+00  0.00000000000E+00 -0.13804371624E+04  0.13804371624E+04  0.00000000000E+00 0.  1.
  1000006    1    1    2  501    0  0.10074409654E+03  0.15209792878E+03 -0.39884410937E+03  0.56112367309E+03  0.35000000000E+03 0.  0.
 -1000006    1    1    2    0  505 -0.79282851453E+02 -0.95311241708E+02 -0.66153523114E+03  0.75861641517E+03  0.35000000000E+03 0.  0.
       21    1    1    2  504  501  0.18821805630E+00 -0.33055419463E+02  0.13944004043E+03  0.14330464422E+03  0.00000000000E+00 0.  1.
       21    1    1    2  505  503 -0.21649463141E+02 -0.23731267610E+02 -0.18707621681E+03  0.18981407538E+03  0.00000000000E+00 0.  1.
<scales pt_clust_1="13000.00000" pt_clust_2="13000.00000" pt_clust_3="33.09424" pt_clust_4="32.12277"></scales>
<clustering>
<clus scale="   32.123">  2  6  1 -1</clus>
<clus scale="   33.094">  1  5  2 -1</clus>
<clus scale="  382.069">  1  3  2 -1</clus>
<clus scale="  382.069">  1  3  2 -1</clus>
</clustering>
</event>
<event>
 5   1  0.3464723E-02  0.7188055E+03  0.7816531E-02  0.9685602E-01
        2   -1    0    0  503    0  0.00000000000E+00  0.00000000000E+00  0.54335650668E+03  0.54335650668E+03  0.00000000000E+00 0. -1.
       21   -1    0    0  501  503  0.00000000000E+00  0.00000000000E+00 -0.15497892123E+04  0.15497892123E+04  0.00000000000E+00 0. -1.
  1000006    1    1    2  501    0 -0.67314358986E+03 -0.32975540037E+03 -0.78256345170E+03  0.11387565467E+04  0.35000000000E+03 0.  0.
 -1000006    1    1    2    0  502  0.45737074314E+03  0.20444135828E+03 -0.31650063468E+03  0.68822737334E+03  0.35000000000E+03 0.  0.
        2    1    1    2  502    0  0.21577284672E+03  0.12531404210E+03  0.92631380761E+02  0.26616179897E+03  0.00000000000E+00 0. -1.
<scales pt_clust_1="13000.00000" pt_clust_2="13000.00000" pt_clust_3="249.52261"></scales>
<clustering>
<clus scale="  249.523">  1  5  2 -1</clus>
<clus scale="  718.805">  2  3  1 -1</clus>
<clus scale="  718.805">  2  3  1 -1</clus>
</clustering>
</event>
<event>
 4   0  0.3464723E-02  0.3676213E+03  0.7816531E-02  0.1055606E+00
       21   -1    0    0  503  502  0.00000000000E+00  0.00000000000E+00  0.30506641755E+03  0.30506641755E+03  0.00000000000E+00 0. -1.
       21   -1    0    0  501  503  0.00000000000E+00  0.00000000000E+00 -0.51987825889E+03  0.51987825889E+03  0.00000000000E+00 0. -1.
  1000006    1    1    2  501    0 -0.10763956981E+03 -0.32544255671E+02 -0.26601815114E+03  0.45377424156E+03  0.35000000000E+03 0.  0.
 -1000006    1    1    2    0  502  0.10763956981E+03  0.32544255671E+02  0.51206309809E+02  0.37117043488E+03  0.35000000000E+03 0.  0.
<scales pt_clust_1="13000.00000" pt_clust_2="13000.00000"></scales>
<clustering>
<clus scale="  367.621">  2  3  1 -1</clus>
<clus scale="  367.621">  1  3  2 -1</clus>
</clustering>
</event>
<event>
 4   0  0.3464723E-02  0.3655320E+03  0.7816531E-02  0.1056415E+00
       21   -1    0    0  501  502  0.00000000000E+00  0.00000000000E+00  0.15775416121E+03  0.15775416121E+03  0.00000000000E+00 0.  1.
       21   -1    0    0  502  503  0.00000000000E+00  0.00000000000E+00 -0.89260401697E+03  0.89260401697E+03  0.00000000000E+00 0.  1.
  1000006    1    1    2  501    0 -0.51661784883E+02  0.91894970494E+02 -0.24868282121E+03  0.44210493232E+03  0.35000000000E+03 0.  0.
 -1000006    1    1    2    0  503  0.51661784883E+02 -0.91894970494E+02 -0.48616703454E+03  0.60825324586E+03  0.35000000000E+03 0.  0.
<scales pt_clust_1="13000.00000" pt_clust_2="13000.00000"></scales>
<clustering>
<clus scale="  365.532">  1  3  2 -1</clus>
<clus scale="  365.532">  1  3  2 -1</clus>
</clustering>
</event>
<event>
 5   1  0.3464723E-02  0.6232783E+03  0.7816531E-02  0.9858254E-01
       21   -1    0    0  504  502  0.00000000000E+00  0.00000000000E+00  0.35394663196E+03  0.35394663196E+03  0.00000000000E+00 0.  1.
       21   -1    0    0  502  503  0.00000000000E+00  0.00000000000E+00 -0.12973050694E+04  0.12973050694E+04  0.00000000000E+00 0. -1.
  1000006    1    1    2  501    0 -0.31942731481E+03  0.40858336820E+03 -0.23879628987E+03  0.66969981803E+03  0.35000000000E+03 0.  0.
 -1000006    1    1    2    0  503  0.29072035642E+03 -0.42451656923E+03 -0.71426515504E+03  0.94731586860E+03  0.35000000000E+03 0.  0.
       21    1    1    2  504  501  0.28706958385E+02  0.15933201031E+02  0.97030074173E+01  0.34236014777E+02  0.00000000000E+00 0.  1.
<scales pt_clust_1="13000.00000" pt_clust_2="13000.00000" pt_clust_3="32.83225"></scales>
<clustering>
<clus scale="   32.832">  1  5  2 -1</clus>
<clus scale="  623.278">  1  3  2 -1</clus>
<clus scale="  623.278">  1  3  2 -1</clus>
</clustering>
</event>
<event>
 4   0  0.3464723E-02  0.3521199E+03  0.7816531E-02  0.1061748E+00
       21   -1    0    0  503  502  0.00000000000E+00  0.00000000000E+00  0.47777277761E+03  0.47777277761E+03  0.00000000000E+00 0.  1.
       21   -1    0    0  501  503  0.00000000000E+00  0.00000000000E+00 -0.32398937183E+03  0.32398937183E+03  0.00000000000E+00 0.  1.
  1000006    1    1    2  501    0 -0.38106554286E+02  0.60282497824E+01 -0.10194186479E+03  0.36657958627E+03  0.35000000000E+03 0.  0.
 -1000006    1    1    2    0  502  0.38106554286E+02 -0.60282497824E+01  0.25572527057E+03  0.43518256316E+03  0.35000000000E+03 0.  0.
<scales pt_clust_1="13000.00000" pt_clust_2="13000.00000"></scales>
<clustering>
<clus scale="  352.120">  2  3  1 -1</clus>
<clus scale="  352.120">  1  3  2 -1</clus>
</clustering>
</event>
<event>
 6   2  0.3464723E-02  0.3679436E+03  0.7816531E-02  0.1055482E+00
       21   -1    0    0  504  503  0.00000000000E+00  0.00000000000E+00  0.30844935990E+03  0.30844935990E+03  0.00000000000E+00 0.  1.
        2   -1    0    0  501    0  0.00000000000E+00  0.00000000000E+00 -0.91209161846E+03  0.91209161846E+03  0.00000000000E+00 0.  1.
  1000006    1    1    2  501    0 -0.17587125167E+03  0.17770869681E+03 -0.18645919875E+03  0.46880498171E+03  0.35000000000E+03 0.  0.
 -1000006    1    1    2    0  503 -0.78986646395E+01 -0.15709580427E+02 -0.13794078666E+03  0.37661232115E+03  0.35000000000E+03 0.  0.
       21    1    1    2  504  502  0.12439526113E+03 -0.10466576796E+03 -0.21989491160E+03  0.27346457928E+03  0.00000000000E+00 0.  1.
        2    1    1    2  502    0  0.59374655180E+02 -0.57333348424E+02 -0.59347361552E+02  0.10165909621E+03  0.00000000000E+00 0.  1.
<scales pt_clust_1="13000.00000" pt_clust_2="13000.00000" pt_clust_3="37.20510" pt_clust_4="250.48258"></scales>
<clustering>
<clus scale="   37.205">  5  6 -1 -1</clus>
<clus scale="  250.483">  2  5  1 -1</clus>
<clus scale="  367.944">  2  3  1 -1</clus>
<clus scale="  367.944">  1  3  2 -1</clus>
</clustering>
</event>
<event>
 4   0  0.3464723E-02  0.4208523E+03  0.7816531E-02  0.1036789E+00
        3   -1    0    0  502    0  0.00000000000E+00  0.00000000000E+00  0.30730821956E+03  0.30730821956E+03  0.00000000000E+00 0. -1.
       -3   -1    0    0    0  501  0.00000000000E+00  0.00000000000E+00 -0.69625060283E+03  0.69625060283E+03  0.00000000000E+00 0.  1.
  1000006    1    1    2  502    0  0.19165424113E+03  0.13373590815E+03  0.13758850524E+02  0.42107712742E+03  0.35000000000E+03 0.  0.
 -1000006    1    1    2    0  501 -0.19165424113E+03 -0.13373590815E+03 -0.40270123379E+03  0.58248169496E+03  0.35000000000E+03 0.  0.
<scales pt_clust_1="13000.00000" pt_clust_2="13000.00000"></scales>
<clustering>
<clus scale="  698.823">  3  4 -1 -1</clus>
<clus scale="  420.852">  1  3  2 -1</clus>
</clustering>
</event>
<event>
 4   0  0.3464723E-02  0.3801651E+03  0.7816531E-02  0.1050873E+00
       21   -1    0    0  501  502  0.00000000000E+00  0.00000000000E+00  0.17119197490E+04  0.17119197490E+04  0.00000000000E+00 0.  1.
       21   -1    0    0  502  503  0.00000000000E+00  0.00000000000E+00 -0.85848643670E+02  0.85848643670E+02  0.00000000000E+00 0.  1.
  1000006    1    1    2  501    0  0.57387697501E+02 -0.13686548610E+03  0.92886871121E+03  0.10036546178E+04  0.35000000000E+03 0.  0.
 -1000006    1    1    2    0  503 -0.57387697501E+02  0.13686548610E+03  0.69720239408E+03  0.79411377486E+03  0.35000000000E+03 0.  0.
<scales pt_clust_1="13000.00000" pt_clust_2="13000.00000"></scales>
<clustering>
<clus scale="  380.165">  1  3  2 -1</clus>
<clus scale="  380.165">  1  3  2 -1</clus>
</clustering>
</event>
<event>
 5   1  0.3464723E-02  0.4971118E+03  0.7816531E-02  0.1014536E+00
       21   -1    0    0  504  502  0.00000000000E+00  0.00000000000E+00  0.23538816525E+03  0.23538816525E+03  0.00000000000E+00 0. -1.
       21   -1    0    0  502  503  0.00000000000E+00  0.00000000000E+00 -0.19216296876E+04  0.19216296876E+04  0.00000000000E+00 0. -1.
  1000006    1    1    2  501    0  0.25844087781E+03  0.25681218597E+03 -0.76623978191E+03  0.91780585614E+03  0.35000000000E+03 0.  0.
 -1000006    1    1    2    0  503 -0.21917881455E+03 -0.26693876264E+03 -0.10194336286E+04  0.11318306317E+04  0.35000000000E+03 0.  0.
       21    1    1    2  504  501 -0.39262063255E+02  0.10126576672E+02  0.99431888161E+02  0.10738136500E+03  0.00000000000E+00 0. -1.
<scales pt_clust_1="13000.00000" pt_clust_2="13000.00000" pt_clust_3="40.54697"></scales>
<clustering>
<clus scale="   40.547">  1  5  2 -1</clus>
<clus scale="  497.112">  1  3  2 -1</clus>
<clus scale="  497.112">  1  3  2 -1</clus>
</clustering>
</event>
<event>
 5   1  0.3464723E-02  0.6110315E+03  0.7816531E-02  0.9882780E-01
       21   -1    0    0  504  502  0.00000000000E+00  0.00000000000E+00  0.73442834420E+03  0.73442834420E+03  0.00000000000E+00 0.  1.
       21   -1    0    0  501  503  0.00000000000E+00  0.00000000000E+00 -0.11658395084E+04  0.11658395084E+04  0.00000000000E+00 0. -1.
  1000006    1    1    2  501    0  0.94607351870E+01 -0.48164808719E+03 -0.57559824083E+03  0.82818338564E+03  0.35000000000E+03 0.  0.
 -1000006    1    1    2    0  502  0.13450832999E+03  0.53204355904E+03 -0.21205038303E+03  0.68456424424E+03  0.35000000000E+03 0.  0.
       21    1    1    2  504  503 -0.14396906517E+03 -0.50395471843E+02  0.35623745968E+03  0.38752022269E+03  0.00000000000E+00 0.  1.
<scales pt_clust_1="13000.00000" pt_clust_2="13000.00000" pt_clust_3="152.53457"></scales>
<clustering>
<clus scale="  152.535">  1  5  2 -1</clus>
<clus scale="  611.031">  1  4  2 -1</clus>
<clus scale="  611.031">  1  3  2 -1</clus>
</clustering>
</event>
<event>
 5   1  0.3464723E-02  0.4540608E+03  0.7816531E-02  0.1026518E+00
       21   -1    0    0  504  502  0.00000000000E+00  0.00000000000E+00  0.53513926909E+03  0.53513926909E+03  0.00000000000E+00 0.  1.
       21   -1    0    0  501  503  0.00000000000E+00  0.00000000000E+00 -0.46363519969E+03  0.46363519969E+03  0.00000000000E+00 0.  1.
  1000006    1    1    2  501    0 -0.29301376357E+03  0.47873630437E+02 -0.11741518344E+03  0.47374600308E+03  0.35000000000E+03 0.  0.
 -1000006    1    1    2    0  502  0.26478259131E+03 -0.80477096665E+02  0.17911915201E+03  0.48080147085E+03  0.35000000000E+03 0.  0.
       21    1    1    2  504  503  0.28231172262E+02  0.32603466228E+02  0.98001008170E+01  0.44226994849E+02  0.00000000000E+00 0.  1.
<scales pt_clust_1="13000.00000" pt_clust_2="13000.00000" pt_clust_3="43.12754"></scales>
<clustering>
<clus scale="   43.128">  1  5  2 -1</clus>
<clus scale="  454.061">  1  4  2 -1</clus>
<clus scale="  454.061">  1  3  2 -1</clus>
</clustering>
</event>
<event>
 6   2  0.3464723E-02  0.3726162E+03  0.7816531E-02  0.1053697E+00
       21   -1    0    0  501  502  0.00000000000E+00  0.00000000000E+00  0.10997726966E+04  0.10997726966E+04  0.00000000000E+00 0. -1.
       21   -1    0    0  502  503  0.00000000000E+00  0.00000000000E+00 -0.62746404969E+03  0.62746404969E+03  0.00000000000E+00 0. -1.
  1000006    1    1    2  501    0 -0.53769919765E+02 -0.83336794589E+02  0.76222098316E+03  0.84458099243E+03  0.35000000000E+03 0.  0.
 -1000006    1    1    2    0  505  0.13420304478E+03  0.35798668672E+03 -0.16871535318E+03  0.54509613418E+03  0.35000000000E+03 0.  0.
       21    1    1    2  504  503 -0.46856832700E+02 -0.90494643553E+02  0.19033597893E+02  0.10366832270E+03  0.00000000000E+00 0. -1.
       21    1    1    2  505  504 -0.33576292318E+02 -0.18415524858E+03 -0.14023058094E+03  0.23389129701E+03  0.00000000000E+00 0. -1.
<scales pt_clust_1="13000.00000" pt_clust_2="13000.00000" pt_clust_3="97.20282" pt_clust_4="315.05204"></scales>
<clustering>
<clus scale="   97.203">  5  6 -1 -1</clus>
<clus scale="  315.052">  2  5  1 -1</clus>
<clus scale="  372.616">  1  3  2 -1</clus>
<clus scale="  372.616">  1  3  2 -1</clus>
</clustering>
</event>
<event>
 4   0  0.3464723E-02  0.4613301E+03  0.7816531E-02  0.1024396E+00
       21   -1    0    0  503  502  0.00000000000E+00  0.00000000000E+00  0.18186345048E+04  0.18186345048E+04  0.00000000000E+00 0.  1.
       21   -1    0    0  501  503  0.00000000000E+00  0.00000000000E+00 -0.14051320687E+03  0.14051320687E+03  0.00000000000E+00 0. -1.
  1000006    1    1    2  501    0  0.30051510829E+03 -0.40110737707E+01  0.43855837373E+03  0.63652090790E+03  0.35000000000E+03 0.  0.
 -1000006    1    1    2    0  502 -0.30051510829E+03  0.40110737707E+01  0.12395629242E+04  0.13226268038E+04  0.35000000000E+03 0.  0.
<scales pt_clust_1="13000.00000" pt_clust_2="13000.00000"></scales>
<clustering>
<clus scale="  461.330">  2  3  1 -1</clus>
<clus scale="  461.330">  1  3  2 -1</clus>
</clustering>
</event>
<event>
 6   2  0.3464723E-02  0.4457795E+03  0.7816531E-02  0.1028988E+00
       -1   -1    0    0    0  501  0.00000000000E+00  0.00000000000E+00  0.84439771714E+02  0.84439771714E+02  0.00000000000E+00 0.  1.
        1   -1    0    0  502    0  0.00000000000E+00  0.00000000000E+00 -0.43117659821E+04  0.43117659821E+04  0.00000000000E+00 0. -1.
  1000006    1    1    2  502    0  0.21539563771E+03  0.30427009503E+02 -0.19762841218E+04  0.20187917212E+04  0.35000000000E+03 0.  0.
 -1000006    1    1    2    0  503 -0.34361726097E+03 -0.16286928908E+03 -0.18852139972E+04  0.19547713530E+04  0.35000000000E+03 0.  0.
       21    1    1    2  503  504  0.92853417580E+02  0.14182240587E+03 -0.33217892718E+03  0.37293188604E+03  0.00000000000E+00 0.  1.
       21    1    1    2  504  501  0.35368205678E+02 -0.93801262971E+01 -0.33649164268E+02  0.49710793578E+02  0.00000000000E+00 0.  1.
<scales pt_clust_1="13000.00000" pt_clust_2="13000.00000" pt_clust_3="172.83694" pt_clust_4="36.59094"></scales>
<clustering>
<clus scale="   36.591">  1  6  2 -1</clus>
<clus scale="  172.837">  1  5  2 -1</clus>
<clus scale="  690.329">  3  4 -1 -1</clus>
<clus scale="  445.780">  2  3  1 -1</clus>
</clustering>
</event>
<event>
 5   1  0.3464723E-02  0.3508626E+03  0.7816531E-02  0.1062262E+00
       21   -1    0    0  502  503  0.00000000000E+00  0.00000000000E+00  0.10971598902E+03  0.10971598902E+03  0.00000000000E+00 0.  1.
        1   -1    0    0  501    0  0.00000000000E+00  0.00000000000E+00 -0.24472729578E+04  0.24472729578E+04  0.00000000000E+00 0.  1.
  1000006    1    1    2  501    0  0.16347245680E+01 -0.14088669464E+03 -0.44369157777E+03  0.58242076649E+03  0.35000000000E+03 0.  0.
 -1000006    1    1    2    0  503 -0.17251428863E+02 -0.11874519304E+02 -0.16464746970E+04  0.16833946489E+04  0.35000000000E+03 0.  0.
        1    1    1    2  502    0  0.15616704295E+02  0.15276121394E+03 -0.24739069400E+03  0.29117353145E+03  0.00000000000E+00 0.  1.
<scales pt_clust_1="13000.00000" pt_clust_2="13000.00000" pt_clust_3="153.55738"></scales>
<clustering>
<clus scale="  153.557">  1  5  2 -1</clus>
<clus scale="  611.592">  3  4 -1 -1</clus>
<clus scale="  350.863">  1  3  2 -1</clus>
</clustering>
</event>
<event>
 5   1  0.3464723E-02  0.4558051E+03  0.7816531E-02  0.1026005E+00
       21   -1    0    0  504  502  0.00000000000E+00  0.00000000000E+00  0.12084702296E+04  0.12084702296E+04  0.00000000000E+00 0. -1.
       21   -1    0    0  501  503  0.00000000000E+00  0.00000000000E+00 -0.41888680887E+03  0.41888680887E+03  0.00000000000E+00 0. -1.
  1000006    1    1    2  501    0 -0.30284610571E+03 -0.28360662740E+02  0.44701462598E+03  0.64408242234E+03  0.35000000000E+03 0.  0.
 -1000006    1    1    2    0  502  0.27800082369E+03  0.53668220902E+02  0.58505421869E+03  0.73820943825E+03  0.35000000000E+03 0.  0.
       21    1    1    2  504  503  0.24845282020E+02 -0.25307558162E+02 -0.24248542399E+03  0.24506517783E+03  0.00000000000E+00 0. -1.
<scales pt_clust_1="13000.00000" pt_clust_2="13000.00000" pt_clust_3="35.46492"></scales>
<clustering>
<clus scale="   35.465">  2  5  1 -1</clus>
<clus scale="  455.805">  2  3  1 -1</clus>
<clus scale="  455.805">  1  3  2 -1</clus>
</clustering>
</event>
<event>
 4   0  0.3464723E-02  0.4352330E+03  0.7816531E-02  0.1032220E+00
       21   -1    0    0  503  502  0.00000000000E+00  0.00000000000E+00  0.23000330522E+03  0.23000330522E+03  0.00000000000E+00 0. -1.
       21   -1    0    0  501  503  0.00000000000E+00  0.00000000000E+00 -0.87172848346E+03  0.87172848346E+03  0.00000000000E+00 0.  1.
  1000006    1    1    2  501    0 -0.13573204689E+03  0.22023747719E+03 -0.45031643177E+03  0.62626881100E+03  0.35000000000E+03 0.  0.
 -1000006    1    1    2    0  502  0.13573204689E+03 -0.22023747719E+03 -0.19140874648E+03  0.47546297768E+03  0.35000000000E+03 0.  0.
<scales pt_clust_1="13000.00000" pt_clust_2="13000.00000"></scales>
<clustering>
<clus scale="  435.233">  2  3  1 -1</clus>
<clus scale="  435.233">  1  3  2 -1</clus>
</clustering>
</event>
<event>
 5   1  0.3464723E-02  0.3615544E+03  0.7816531E-02  0.1057970E+00
       21   -1    0    0  503  502  0.00000000000E+00  0.00000000000E+00  0.61769291089E+03  0.61769291089E+03  0.00000000000E+00 0.  1.
       21   -1    0    0  501  503  0.00000000000E+00  0.00000000000E+00 -0.11017004220E+04  0.11017004220E+04  0.00000000000E+00 0. -1.
  1000006    1    1    2  501    0  0.10009507004E+03 -0.13388670072E+02 -0.69175584843E+03  0.78180843777E+03  0.35000000000E+03 0.  0.
 -1000006    1    1    2    0  504 -0.67944581499E+02  0.22265114138E+02 -0.27678221999E+03  0.45190773258E+03  0.35000000000E+03 0.  0.
       21    1    1    2  504  502 -0.32150488545E+02 -0.88764440660E+01  0.48453055734E+03  0.48567716250E+03  0.00000000000E+00 0.  1.
<scales pt_clust_1="13000.00000" pt_clust_2="13000.00000" pt_clust_3="33.35334"></scales>
<clustering>
<clus scale="   33.353">  1  5  2 -1</clus>
<clus scale="  361.554">  2  3  1 -1</clus>
<clus scale="  361.554">  1  3  2 -1</clus>
</clustering>
</event>
<event>
 6   2  0.3464723E-02  0.4871848E+03  0.7816531E-02  0.1017179E+00
       21   -1    0    0  502  503  0.00000000000E+00  0.00000000000E+00  0.44587887683E+03  0.44587887683E+03  0.00000000000E+00 0.  1.
       21   -1    0    0  501  504  0.00000000000E+00  0.00000000000E+00 -0.66952352069E+03  0.66952352069E+03  0.00000000000E+00 0.  1.
  1000006    1    1    2  501    0 -0.21057603543E+03 -0.30359998858E+03 -0.10326330301E+03  0.51930581502E+03  0.35000000000E+03 0.  0.
 -1000006    1    1    2    0  503  0.12943574050E+03  0.28473394256E+03 -0.79738201252E+02  0.47611470225E+03  0.35000000000E+03 0.  0.
        1    1    1    2  502    0  0.39368435345E+02 -0.40626058986E+01  0.18784712232E+02  0.43809175772E+02  0.00000000000E+00 0. -1.
       -1    1    1    2    0  504  0.41771859587E+02  0.22928651922E+02 -0.59427851829E+02  0.76172704464E+02  0.00000000000E+00 0.  1.
<scales pt_clust_1="13000.00000" pt_clust_2="13000.00000" pt_clust_3="39.57750" pt_clust_4="48.31054"></scales>
<clustering>
<clus scale="   39.577">  1  5  2 -1</clus>
<clus scale="   48.311">  2  6  1 -1</clus>
<clus scale="  763.500">  3  4 -1 -1</clus>
<clus scale="  487.185">  1  3  2 -1</clus>
</clustering>
</event>
<event>
 6   2  0.3464723E-02  0.6480395E+03  0.7816531E-02  0.9810465E-01
       21   -1    0    0  504  502  0.00000000000E+00  0.00000000000E+00  0.16879786420E+04  0.16879786420E+04  0.00000000000E+00 0. -1.
       21   -1    0    0  501  503  0.00000000000E+00  0.00000000000E+00 -0.30573257887E+03  0.30573257887E+03  0.00000000000E+00 0. -1.
  1000006    1    1    2  501    0  0.56726438686E+03  0.20399275274E+02  0.46297601374E+03  0.81182005661E+03  0.35000000000E+03 0.  0.
 -1000006    1    1    2    0  505 -0.53847966840E+03  0.31193153810E+01  0.79975191524E+03  0.10257062003E+04  0.35000000000E+03 0.  0.
       21    1    1    2  504  503 -0.50483635617E+02  0.10975238271E+02  0.35138425534E+02  0.62480094984E+02  0.00000000000E+00 0.  1.
       21    1    1    2  505  502  0.21698917163E+02 -0.34493828926E+02  0.84379708590E+02  0.93704868933E+02  0.00000000000E+00 0. -1.
<scales pt_clust_1="13000.00000" pt_clust_2="13000.00000" pt_clust_3="50.79969" pt_clust_4="40.75129"></scales>
<clustering>
<clus scale="   40.751">  1  6  2 -1</clus>
<clus scale="   50.800">  2  5  1 -1</clus>
<clus scale="  648.040">  1  4  2 -1</clus>
<clus scale="  648.040">  1  3  2 -1</clus>
</clustering>
</event>
<event>
 6   2  0.3464723E-02  0.9184570E+03  0.7816531E-02  0.9402799E-01
       21   -1    0    0  503  502  0.00000000000E+00  0.00000000000E+00  0.21263202285E+04  0.21263202285E+04  0.00000000000E+00 0.  1.
       21   -1    0    0  504  503  0.00000000000E+00  0.00000000000E+00 -0.70373944763E+03  0.70373944763E+03  0.00000000000E+00 0. -1.
  1000006    1    1    2  501    0 -0.79296546425E+03 -0.22031703724E+03  0.57765577828E+03  0.10646689732E+04  0.35000000000E+03 0.  0.
 -1000006    1    1    2    0  505  0.80979731880E+03  0.34369423099E+03  0.98762384348E+03  0.13681367907E+04  0.35000000000E+03 0.  0.
       21    1    1    2  504  501  0.15810908012E+02 -0.12894310776E+03 -0.25174673529E+03  0.28328912541E+03  0.00000000000E+00 0. -1.
       21    1    1    2  505  502 -0.32642762559E+02  0.55659140075E+01  0.10904789436E+03  0.11396478672E+03  0.00000000000E+00 0.  1.
<scales pt_clust_1="13000.00000" pt_clust_2="13000.00000" pt_clust_3="129.83475" pt_clust_4="33.11388"></scales>
<clustering>
<clus scale="   33.114">  1  6  2 -1</clus>
<clus scale="  129.835">  2  5  1 -1</clus>
<clus scale="  918.457">  2  3  1 -1</clus>
<clus scale="  918.457">  1  3  2 -1</clus>
</clustering>
</event>
<event>
 6   2  0.3464723E-02  0.5600486E+03  0.7816531E-02  0.9991945E-01
       21   -1    0    0  501  502  0.00000000000E+00  0.00000000000E+00  0.74713111384E+03  0.74713111384E+03  0.00000000000E+00 0.  1.
       21   -1    0    0  504  503  0.00000000000E+00  0.00000000000E+00 -0.87398819171E+03  0.87398819171E+03  0.00000000000E+00 0. -1.
  1000006    1    1    2  501    0 -0.52911776923E+03 -0.72341543883E+02  0.17269759365E+03  0.66145549475E+03  0.35000000000E+03 0.  0.
 -1000006    1    1    2    0  505  0.30688400855E+03 -0.65582330833E+02 -0.19458798237E+03  0.50876646873E+03  0.35000000000E+03 0.  0.
       21    1    1    2  504  502  0.19593790598E+01  0.64524924586E+02  0.11447642128E+03  0.13142357508E+03  0.00000000000E+00 0. -1.
       21    1    1    2  505  503  0.22027438162E+03  0.73398950130E+02 -0.21944311042E+03  0.31947376699E+03  0.00000000000E+00 0. -1.
<scales pt_clust_1="13000.00000" pt_clust_2="13000.00000" pt_clust_3="64.55467" pt_clust_4="234.01524"></scales>
<clustering>
<clus scale="   64.555">  1  5  2 -1</clus>
<clus scale="  234.015">  2  6  1 -1</clus>
<clus scale="  560.049">  2  4  1 -1</clus>
<clus scale="  560.049">  1  3  2 -1</clus>
</clustering>
</event>
<event>
 6   2  0.3464723E-02  0.3932875E+03  0.7816531E-02  0.1046129E+00
        1   -1    0    0  503    0  0.00000000000E+00  0.00000000000E+00  0.81400040451E+03  0.81400040451E+03  0.00000000000E+00 0. -1.
       -1   -1    0    0    0  501  0.00000000000E+00  0.00000000000E+00 -0.11295572194E+04  0.11295572194E+04  0.00000000000E+00 0.  1.
  1000006    1    1    2  502    0 -0.63150502119E+02  0.18063850136E+03 -0.33649441837E+03  0.52186851571E+03  0.35000000000E+03 0.  0.
 -1000006    1    1    2    0  504  0.22421915745E+03 -0.16457648444E+03  0.38819039197E+03  0.59207383849E+03  0.35000000000E+03 0.  0.
       21    1    1    2  503  502 -0.16430080984E+03  0.16918289404E+02  0.20113519759E+03  0.26026208395E+03  0.00000000000E+00 0. -1.
       21    1    1    2  504  501  0.32321545111E+01 -0.32980306317E+02 -0.56838798609E+03  0.56935318579E+03  0.00000000000E+00 0.  1.
<scales pt_clust_1="13000.00000" pt_clust_2="13000.00000" pt_clust_3="164.83081" pt_clust_4="33.13831"></scales>
<clustering>
<clus scale="   33.138">  2  6  1 -1</clus>
<clus scale="  164.831">  1  5  2 -1</clus>
<clus scale="  918.964">  3  4 -1 -1</clus>
<clus scale="  393.287">  1  3  2 -1</clus>
</clustering>
</event>
<event>
 4   0  0.3464723E-02  0.4166441E+03  0.7816531E-02  0.1038164E+00
       21   -1    0    0  503  502  0.00000000000E+00  0.00000000000E+00  0.17714108098E+04  0.17714108098E+04  0.00000000000E+00 0. -1.
       21   -1    0    0  501  503  0.00000000000E+00  0.00000000000E+00 -0.11345477363E+03  0.11345477363E+03  0.00000000000E+00 0.  1.
  1000006    1    1    2  501    0 -0.22033701868E+03  0.50437513857E+02  0.48110781095E+03  0.63644094020E+03  0.35000000000E+03 0.  0.
 -1000006    1    1    2    0  502  0.22033701868E+03 -0.50437513857E+02  0.11768482253E+04  0.12484246433E+04  0.35000000000E+03 0.  0.
<scales pt_clust_1="13000.00000" pt_clust_2="13000.00000"></scales>
<clustering>
<clus scale="  416.644">  2  3  1 -1</clus>
<clus scale="  416.644">  1  3  2 -1</clus>
</clustering>
</event>
<event>
 6   2  0.3464723E-02  0.4268458E+03  0.7816531E-02  0.1034861E+00
        2   -1    0    0  504    0  0.00000000000E+00  0.00000000000E+00  0.62886004456E+03  0.62886004456E+03  0.00000000000E+00 0. -1.
       21   -1    0    0  501  503  0.00000000000E+00  0.00000000000E+00 -0.23882523052E+04  0.23882523052E+04  0.00000000000E+00 0.  1.
  1000006    1    1    2  501    0 -0.10432260935E+03 -0.20645169713E+03 -0.17472315345E+04  0.17968927472E+04  0.35000000000E+03 0.  0.
 -1000006    1    1    2    0  502  0.97531824031E+02  0.27436828903E+03 -0.51557172607E+03  0.68782600957E+03  0.35000000000E+03 0.  0.
       21    1    1    2  504  503  0.31874263096E+02  0.13353010208E+02  0.16836275496E+02  0.38441276021E+02  0.00000000000E+00 0.  1.
        2    1    1    2  502    0 -0.25083477779E+02 -0.81269602103E+02  0.48657472434E+03  0.49395231698E+03  0.00000000000E+00 0. -1.
<scales pt_clust_1="13000.00000" pt_clust_2="13000.00000" pt_clust_3="34.55823" pt_clust_4="70.38680"></scales>
<clustering>
<clus scale="   34.558">  1  5  2 -1</clus>
<clus scale="   70.387">  1  6  2 -1</clus>
<clus scale="  426.846">  1  4  2 -1</clus>
<clus scale="  426.846">  2  3  1 -1</clus>
</clustering>
</event>
<event>
 5   1  0.3464723E-02  0.5447108E+03  0.7816531E-02  0.1002726E+00
       21   -1    0    0  503  502  0.00000000000E+00  0.00000000000E+00  0.12524339575E+04  0.12524339575E+04  0.00000000000E+00 0.  1.
       21   -1    0    0  504  503  0.00000000000E+00  0.00000000000E+00 -0.11121154470E+04  0.11121154470E+04  0.00000000000E+00 0. -1.
  1000006    1    1    2  501    0 -0.35373145628E+03  0.36510090658E+02 -0.74730157075E+03  0.89856472640E+03  0.35000000000E+03 0.  0.
 -1000006    1    1    2    0  502  0.42109336968E+03 -0.30731041502E+02  0.11075524360E+04  0.12358949881E+04  0.35000000000E+03 0.  0.
       21    1    1    2  504  501 -0.67361913407E+02 -0.57790491561E+01 -0.21993235476E+03  0.23008969003E+03  0.00000000000E+00 0.  1.
<scales pt_clust_1="13000.00000" pt_clust_2="13000.00000" pt_clust_3="67.60935"></scales>
<clustering>
<clus scale="   67.609">  2  5  1 -1</clus>
<clus scale="  544.711">  2  3  1 -1</clus>
<clus scale="  544.711">  1  3  2 -1</clus>
</clustering>
</event>
<event>
 6   2  0.3464723E-02  0.4502848E+03  0.7816531E-02  0.1027637E+00
       -3   -1    0    0    0  501  0.00000000000E+00  0.00000000000E+00  0.86050875446E+03  0.86050875446E+03  0.00000000000E+00 0. -1.
       21   -1    0    0  502  503  0.00000000000E+00  0.00000000000E+00 -0.68127311136E+03  0.68127311136E+03  0.00000000000E+00 0.  1.
  1000006    1    1    2  502    0 -0.28496599584E+03  0.58817413604E+01 -0.34436404401E+03  0.56773832746E+03  0.35000000000E+03 0.  0.
 -1000006    1    1    2    0  504  0.25374262319E+03 -0.21145356671E+03  0.10523147475E+03  0.49261708555E+03  0.35000000000E+03 0.  0.
       21    1    1    2  504  501  0.38975357146E+02  0.24621807198E+02  0.36559017863E+02  0.58837688954E+02  0.00000000000E+00 0. -1.
       -3    1    1    2    0  503 -0.77519845006E+01  0.18095001815E+03  0.38180919450E+03  0.42258876386E+03  0.00000000000E+00 0. -1.
<scales pt_clust_1="13000.00000" pt_clust_2="13000.00000" pt_clust_3="46.10110" pt_clust_4="193.47761"></scales>
<clustering>
<clus scale="   46.101">  1  5  2 -1</clus>
<clus scale="  193.478">  1  6  2 -1</clus>
<clus scale="  450.285">  2  3  1 -1</clus>
<clus scale="  450.285">  2  3  1 -1</clus>
</clustering>
</event>
<event>
 5   1  0.3464723E-02  0.3966030E+03  0.7816531E-02  0.1044962E+00
       21   -1    0    0  501  502  0.00000000000E+00  0.00000000000E+00  0.14883285963E+04  0.14883285963E+04  0.00000000000E+00 0.  1.
       21   -1    0    0  504  503  0.00000000000E+00  0.00000000000E+00 -0.20586749736E+03  0.20586749736E+03  0.00000000000E+00 0.  1.
  1000006    1    1    2  501    0  0.14738118022E+03 -0.41234922529E+01  0.11115946840E+04  0.11746833433E+04  0.35000000000E+03 0.  0.
 -1000006    1    1    2    0  503 -0.19088329876E+03 -0.43529929765E+02  0.81414945658E+02  0.40921837924E+03  0.35000000000E+03 0.  0.
       21    1    1    2  504  502  0.43502118547E+02  0.47653422018E+02  0.89451469229E+02  0.11029437110E+03  0.00000000000E+00 0.  1.
<scales pt_clust_1="13000.00000" pt_clust_2="13000.00000" pt_clust_3="64.52351"></scales>
<clustering>
<clus scale="   64.524">  1  5  2 -1</clus>
<clus scale="  396.603">  1  3  2 -1</clus>
<clus scale="  396.603">  1  3  2 -1</clus>
</clustering>
</event>
<event>
 4   0  0.3464723E-02  0.4061269E+03  0.7816531E-02  0.1041679E+00
       21   -1    0    0  501  502  0.00000000000E+00  0.00000000000E+00  0.20471325043E+03  0.20471325043E+03  0.00000000000E+00 0.  1.
       21   -1    0    0  502  503  0.00000000000E+00  0.00000000000E+00 -0.94770089979E+03  0.94770089979E+03  0.00000000000E+00 0. -1.
  1000006    1    1    2  501    0  0.11308288728E+03 -0.17219568520E+03 -0.14845712485E+03  0.43241023498E+03  0.35000000000E+03 0.  0.
 -1000006    1    1    2    0  503 -0.11308288728E+03  0.17219568520E+03 -0.59453052451E+03  0.72000391525E+03  0.35000000000E+03 0.  0.
<scales pt_clust_1="13000.00000" pt_clust_2="13000.00000"></scales>
<clustering>
<clus scale="  406.127">  1  3  2 -1</clus>
<clus scale="  406.127">  1  3  2 -1</clus>
</clustering>
</event>
<event>
 5   1  0.3464723E-02  0.3625947E+03  0.7816531E-02  0.1057561E+00
       21   -1    0    0  501  502  0.00000000000E+00  0.00000000000E+00  0.52648742345E+03  0.52648742345E+03  0.00000000000E+00 0.  1.
       21   -1    0    0  504  503  0.00000000000E+00  0.00000000000E+00 -0.90079308377E+03  0.90079308377E+03  0.00000000000E+00 0. -1.
  1000006    1    1    2  501    0  0.62278126745E+02  0.52495946080E+01 -0.34079408578E+03  0.49249033718E+03  0.35000000000E+03 0.  0.
 -1000006    1    1    2    0  503 -0.11893589329E+03  0.55430653867E+02 -0.40675808758E+03  0.55242234378E+03  0.35000000000E+03 0.  0.
       21    1    1    2  504  502  0.56657766545E+02 -0.60680248475E+02  0.37324651303E+03  0.38236782626E+03  0.00000000000E+00 0.  1.
<scales pt_clust_1="13000.00000" pt_clust_2="13000.00000" pt_clust_3="83.01925"></scales>
<clustering>
<clus scale="   83.019">  1  5  2 -1</clus>
<clus scale="  362.595">  1  3  2 -1</clus>
<clus scale="  362.595">  1  3  2 -1</clus>
</clustering>
</event>
<event>
 5   1  0.3464723E-02  0.6775731E+03  0.7816531E-02  0.9756373E-01
       21   -1    0    0  504  502  0.00000000000E+00  0.00000000000E+00  0.53820416242E+03  0.53820416242E+03  0.00000000000E+00 0.  1.
       21   -1    0    0  501  503  0.00000000000E+00  0.00000000000E+00 -0.10108265523E+04  0.10108265523E+04  0.00000000000E+00 0. -1.
  1000006    1    1    2  501    0  0.13004248190E+03 -0.56351974264E+03 -0.28151905070E+03  0.73226943358E+03  0.35000000000E+03 0.  0.
 -1000006    1    1    2    0  502 -0.52982689116E+02  0.58253019490E+03 -0.24101118332E+03  0.72300413816E+03  0.35000000000E+03 0.  0.
       21    1    1    2  504  503 -0.77059792781E+02 -0.19010452255E+02  0.49907844122E+02  0.93757142999E+02  0.00000000000E+00 0.  1.
<scales pt_clust_1="13000.00000" pt_clust_2="13000.00000" pt_clust_3="79.37008"></scales>
<clustering>
<clus scale="   79.370">  1  5  2 -1</clus>
<clus scale="  677.573">  2  3  1 -1</clus>
<clus scale="  677.573">  1  3  2 -1</clus>
</clustering>
</event>
<event>
 4   0  0.3464723E-02  0.3821494E+03  0.7816531E-02  0.1050142E+00
       21   -1    0    0  503  502  0.00000000000E+00  0.00000000000E+00  0.18273310208E+03  0.18273310208E+03  0.00000000000E+00 0.  1.
       21   -1    0    0  501  503  0.00000000000E+00  0.00000000000E+00 -0.90683035314E+03  0.90683035314E+03  0.00000000000E+00 0.  1.
  1000006    1    1    2  501    0  0.11201609163E+03 -0.10483574732E+03 -0.54974275925E+03  0.66951866296E+03  0.35000000000E+03 0.  0.
 -1000006    1    1    2    0  502 -0.11201609163E+03  0.10483574732E+03 -0.17435449181E+03  0.42004479227E+03  0.35000000000E+03 0.  0.
<scales pt_clust_1="13000.00000" pt_clust_2="13000.00000"></scales>
<clustering>
<clus scale="  382.149">  2  3  1 -1</clus>
<clus scale="  382.149">  1  3  2 -1</clus>
</clustering>
</event>
<event>
 6   2  0.3464723E-02  0.4019484E+03  0.7816531E-02  0.1043107E+00
       21   -1    0    0  501  502  0.00000000000E+00  0.00000000000E+00  0.53541293031E+03  0.53541293031E+03  0.00000000000E+00 0.  1.
       21   -1    0    0  505  503  0.00000000000E+00  0.00000000000E+00 -0.49469277100E+03  0.49469277100E+03  0.00000000000E+00 0.  1.
  1000006    1    1    2  501    0  0.29215913689E+02  0.16308285037E+03  0.16050365921E+03  0.41917897170E+03  0.35000000000E+03 0.  0.
 -1000006    1    1    2    0  504 -0.91206995745E+02 -0.20807376119E+03 -0.61510858569E+02  0.42177836821E+03  0.35000000000E+03 0.  0.
       21    1    1    2  504  503  0.32446446897E+02  0.99132461925E+01 -0.11286190734E+03  0.11785098427E+03  0.00000000000E+00 0.  1.
       21    1    1    2  505  502  0.29544635159E+02  0.35077664634E+02  0.54589266001E+02  0.71297377128E+02  0.00000000000E+00 0.  1.
<scales pt_clust_1="13000.00000" pt_clust_2="13000.00000" pt_clust_3="33.92704" pt_clust_4="46.49113"></scales>
<clustering>
<clus scale="   33.927">  2  5  1 -1</clus>
<clus scale="   46.491">  1  6  2 -1</clus>
<clus scale="  401.948">  1  3  2 -1</clus>
<clus scale="  401.948">  1  3  2 -1</clus>
</clustering>
</event>
<event>
 5   1  0.3464723E-02  0.5007608E+03  0.7816531E-02  0.1013581E+00
       -1   -1    0    0    0  501  0.00000000000E+00  0.00000000000E+00  0.17679758105E+03  0.17679758105E+03  0.00000000000E+00 0.  1.
        1   -1    0    0  503    0  0.00000000000E+00  0.00000000000E+00 -0.20539690668E+04  0.20539690668E+04  0.00000000000E+00 0. -1.
  1000006    1    1    2  502    0  0.34821275560E+03  0.10307545387E+03 -0.51195516312E+03  0.71866178512E+03  0.35000000000E+03 0.  0.
 -1000006    1    1    2    0  501 -0.32625303851E+03 -0.13281985208E+03 -0.77312550138E+03  0.91886081597E+03  0.35000000000E+03 0.  0.
       21    1    1    2  503  502 -0.21959717089E+02  0.29744398208E+02 -0.59209082122E+03  0.59324404672E+03  0.00000000000E+00 0.  1.
<scales pt_clust_1="13000.00000" pt_clust_2="13000.00000" pt_clust_3="36.97240"></scales>
<clustering>
<clus scale="   36.972">  2  5  1 -1</clus>
<clus scale="  813.130">  3  4 -1 -1</clus>
<clus scale="  500.761">  2  3  1 -1</clus>
</clustering>
</event>
<event>
 6   2  0.3464723E-02  0.4509510E+03  0.7816531E-02  0.1027439E+00
       21   -1    0    0  501  502  0.00000000000E+00  0.00000000000E+00  0.53040431663E+03  0.53040431663E+03  0.00000000000E+00 0.  1.
       21   -1    0    0  504  503  0.00000000000E+00  0.00000000000E+00 -0.18776518935E+04  0.18776518935E+04  0.00000000000E+00 0. -1.
  1000006    1    1    2  501    0 -0.51551283408E+02  0.30368284714E+03  0.37500925983E+02  0.46774686094E+03  0.35000000000E+03 0.  0.
 -1000006    1    1    2    0  505 -0.19776096061E+03 -0.24338734395E+03 -0.21085973224E+02  0.47041621465E+03  0.35000000000E+03 0.  0.
       21    1    1    2  504  502 -0.54955170268E+01  0.33026067141E+02  0.33061526971E+02  0.47053016734E+02  0.00000000000E+00 0.  1.
       21    1    1    2  505  503  0.25480776104E+03 -0.93321570333E+02 -0.13967240565E+04  0.14228401178E+04  0.00000000000E+00 0. -1.
<scales pt_clust_1="13000.00000" pt_clust_2="13000.00000" pt_clust_3="33.48017" pt_clust_4="270.92060"></scales>
<clustering>
<clus scale="   33.480">  1  5  2 -1</clus>
<clus scale="  270.921">  2  6  1 -1</clus>
<clus scale="  450.951">  1  3  2 -1</clus>
<clus scale="  450.951">  1  3  2 -1</clus>
</clustering>
</event>
<event>
 6   2  0.3464723E-02  0.3605839E+03  0.7816531E-02  0.1058353E+00
        1   -1    0    0  504    0  0.00000000000E+00  0.00000000000E+00  0.11454106680E+04  0.11454106680E+04  0.00000000000E+00 0. -1.
       21   -1    0    0  501  503  0.00000000000E+00  0.00000000000E+00 -0.67607360948E+03  0.67607360948E+03  0.00000000000E+00 0. -1.
  1000006    1    1    2  501    0 -0.50539832800E+02  0.95633603253E+02 -0.36796726709E+03  0.51923017094E+03  0.35000000000E+03 0.  0.
 -1000006    1    1    2    0  502  0.50603546802E+02 -0.64485923830E+02  0.16339878420E+02  0.35984183324E+03  0.35000000000E+03 0.  0.
       21    1    1    2  504  503  0.39086653757E+02 -0.15579896499E+02 -0.52865779086E+02  0.67566931818E+02  0.00000000000E+00 0.  1.
        1    1    1    2  502    0 -0.39150367759E+02 -0.15567782924E+02  0.87383022625E+03  0.87484534145E+03  0.00000000000E+00 0. -1.
<scales pt_clust_1="13000.00000" pt_clust_2="13000.00000" pt_clust_3="42.07731" pt_clust_4="42.10684"></scales>
<clustering>
<clus scale="   42.077">  2  5  1 -1</clus>
<clus scale="   42.107">  1  6  2 -1</clus>
<clus scale="  360.584">  1  4  2 -1</clus>
<clus scale="  360.584">  2  3  1 -1</clus>
</clustering>
</event>
<event>
 4   0  0.3464723E-02  0.3552985E+03  0.7816531E-02  0.1060461E+00
       21   -1    0    0  503  502  0.00000000000E+00  0.00000000000E+00  0.94991034275E+03  0.94991034275E+03  0.00000000000E+00 0. -1.
       21   -1    0    0  501  503  0.00000000000E+00  0.00000000000E+00 -0.13405127434E+03  0.13405127434E+03  0.00000000000E+00 0. -1.
  1000006    1    1    2  501    0 -0.42077085051E+02 -0.44346044972E+02  0.35756414120E+03  0.50407258194E+03  0.35000000000E+03 0.  0.
 -1000006    1    1    2    0  502  0.42077085051E+02  0.44346044972E+02  0.45829492720E+03  0.57988903515E+03  0.35000000000E+03 0.  0.
<scales pt_clust_1="13000.00000" pt_clust_2="13000.00000"></scales>
<clustering>
<clus scale="  355.299">  2  3  1 -1</clus>
<clus scale="  355.299">  1  3  2 -1</clus>
</clustering>
</event>
<event>
 4   0  0.3464723E-02  0.3936505E+03  0.7816531E-02  0.1046001E+00
       21   -1    0    0  503  502  0.00000000000E+00  0.00000000000E+00  0.24751854195E+03  0.24751854195E+03  0.00000000000E+00 0.  1.
       21   -1    0    0  501  503  0.00000000000E+00  0.00000000000E+00 -0.63251645919E+03  0.63251645919E+03  0.00000000000E+00 0.  1.
  1000006    1    1    2  501    0 -0.15431294511E+03  0.92996048748E+02 -0.23696489641E+03  0.45947046939E+03  0.35000000000E+03 0.  0.
 -1000006    1    1    2    0  502  0.15431294511E+03 -0.92996048748E+02 -0.14803302083E+03  0.42056453175E+03  0.35000000000E+03 0.  0.
<scales pt_clust_1="13000.00000" pt_clust_2="13000.00000"></scales>
<clustering>
<clus scale="  393.651">  2  3  1 -1</clus>
<clus scale="  393.651">  1  3  2 -1</clus>
</clustering>
</event>
<event>
 6   2  0.3464723E-02  0.3818984E+03  0.7816531E-02  0.1050234E+00
       21   -1    0    0  504  502  0.00000000000E+00  0.00000000000E+00  0.15420562384E+03  0.15420562384E+03  0.00000000000E+00 0.  1.
       21   -1    0    0  505  503  0.00000000000E+00  0.00000000000E+00 -0.21828733810E+04  0.21828733810E+04  0.00000000000E+00 0.  1.
  1000006    1    1    2  501    0 -0.87603328436E+02  0.86497086638E+02 -0.77105954995E+03  0.85568038350E+03  0.35000000000E+03 0.  0.
 -1000006    1    1    2    0  502  0.15367698818E+03 -0.69730540954E+02 -0.26337612538E+03  0.46941021341E+03  0.35000000000E+03 0.  0.
       21    1    1    2  504  503  0.22397405275E+02  0.64641408326E+02 -0.34466203429E+03  0.35138593215E+03  0.00000000000E+00 0.  1.
       21    1    1    2  505  501 -0.88471065019E+02 -0.81407954010E+02 -0.64957004754E+03  0.66060247576E+03  0.00000000000E+00 0.  1.
<scales pt_clust_1="13000.00000" pt_clust_2="13000.00000" pt_clust_3="68.41166" pt_clust_4="99.39057"></scales>
<clustering>
<clus scale="   68.412">  2  5  1 -1</clus>
<clus scale="   99.391">  2  6  1 -1</clus>
<clus scale="  381.898">  1  4  2 -1</clus>
<clus scale="  381.898">  1  3  2 -1</clus>
</clustering>
</event>
<event>
 4   0  0.3464723E-02  0.3512539E+03  0.7816531E-02  0.1062102E+00
       21   -1    0    0  501  502  0.00000000000E+00  0.00000000000E+00  0.52109716579E+02  0.52109716579E+02  0.00000000000E+00 0. -1.
       21   -1    0    0  502  503  0.00000000000E+00  0.00000000000E+00 -0.23786263452E+04  0.23786263452E+04  0.00000000000E+00 0. -1.
  1000006    1    1    2  501    0 -0.29641301562E+02  0.81447799428E+00 -0.10808203344E+04  0.11364646344E+04  0.35000000000E+03 0.  0.
 -1000006    1    1    2    0  503  0.29641301562E+02 -0.81447799428E+00 -0.12456962943E+04  0.12942714274E+04  0.35000000000E+03 0.  0.
<scales pt_clust_1="13000.00000" pt_clust_2="13000.00000"></scales>
<clustering>
<clus scale="  351.254">  1  3  2 -1</clus>
<clus scale="  351.254">  1  3  2 -1</clus>
</clustering>
</event>
<event>
 4   0  0.3464723E-02  0.4017752E+03  0.7816531E-02  0.1043167E+00
       21   -1    0    0  503  502  0.00000000000E+00  0.00000000000E+00  0.16277362689E+03  0.16277362689E+03  0.00000000000E+00 0.  1.
       21   -1    0    0  501  503  0.00000000000E+00  0.00000000000E+00 -0.10182387921E+04  0.10182387921E+04  0.00000000000E+00 0.  1.
  1000006    1    1    2  501    0 -0.30157800757E+01 -0.19726685191E+03 -0.52305719216E+03  0.65955449514E+03  0.35000000000E+03 0.  0.
 -1000006    1    1    2    0  502  0.30157800757E+01  0.19726685191E+03 -0.33240797304E+03  0.52145792384E+03  0.35000000000E+03 0.  0.
<scales pt_clust_1="13000.00000" pt_clust_2="13000.00000"></scales>
<clustering>
<clus scale="  401.775">  2  3  1 -1</clus>
<clus scale="  401.775">  1  3  2 -1</clus>
</clustering>
</event>
<event>
 6   2  0.3464723E-02  0.3784668E+03  0.7816531E-02  0.1051502E+00
        2   -1    0    0  501    0  0.00000000000E+00  0.00000000000E+00  0.69809949366E+03  0.69809949366E+03  0.00000000000E+00 0. -1.
       21   -1    0    0  504  503  0.00000000000E+00  0.00000000000E+00 -0.44942086595E+03  0.44942086595E+03  0.00000000000E+00 0. -1.
  1000006    1    1    2  501    0  0.91465864240E+01  0.10261295155E+03  0.10742635960E+03  0.38033340716E+03  0.35000000000E+03 0.  0.
 -1000006    1    1    2    0  503 -0.70926988712E+02 -0.17582463835E+03  0.98909201436E+02  0.41015603288E+03  0.35000000000E+03 0.  0.
       21    1    1    2  504  502  0.25031615134E+02  0.33449741190E+02 -0.15078032164E+03  0.15646140845E+03  0.00000000000E+00 0. -1.
        2    1    1    2  502    0  0.36748787153E+02  0.39761945605E+02  0.19312338831E+03  0.20056951112E+03  0.00000000000E+00 0. -1.
<scales pt_clust_1="13000.00000" pt_clust_2="13000.00000" pt_clust_3="41.77879" pt_clust_4="54.66625"></scales>
<clustering>
<clus scale="   41.779">  2  5  1 -1</clus>
<clus scale="   54.666">  1  6  2 -1</clus>
<clus scale="  378.467">  2  4  1 -1</clus>
<clus scale="  378.467">  2  3  1 -1</clus>
</clustering>
</event>
<event>
 5   1  0.3464723E-02  0.7234203E+03  0.7816531E-02  0.9677998E-01
        2   -1    0    0  503    0  0.00000000000E+00  0.00000000000E+00  0.11209231581E+04  0.11209231581E+04  0.00000000000E+00 0.  1.
       21   -1    0    0  501  503  0.00000000000E+00  0.00000000000E+00 -0.16083480031E+04  0.16083480031E+04  0.00000000000E+00 0. -1.
  1000006    1    1    2  501    0 -0.53186200362E+03 -0.34227373194E+03 -0.12503071571E+04  0.14442286819E+04  0.35000000000E+03 0.  0.
 -1000006    1    1    2    0  502  0.56128048887E+03  0.30339010895E+03  0.24943439755E+03  0.76928464438E+03  0.35000000000E+03 0.  0.
        2    1    1    2  502    0 -0.29418485245E+02  0.38883622982E+02  0.51344791453E+03  0.51575783499E+03  0.00000000000E+00 0.  1.
<scales pt_clust_1="13000.00000" pt_clust_2="13000.00000" pt_clust_3="48.75842"></scales>
<clustering>
<clus scale="   48.758">  1  5  2 -1</clus>
<clus scale="  723.420">  1  4  2 -1</clus>
<clus scale="  723.420">  2  3  1 -1</clus>
</clustering>
</event>
<event>
 4   0  0.3464723E-02  0.3930518E+03  0.7816531E-02  0.1046213E+00
       21   -1    0    0  501  502  0.00000000000E+00  0.00000000000E+00  0.46620416292E+03  0.46620416292E+03  0.00000000000E+00 0. -1.
       21   -1    0    0  502  503  0.00000000000E+00  0.00000000000E+00 -0.44820712620E+03  0.44820712620E+03  0.00000000000E+00 0. -1.
  1000006    1    1    2  501    0 -0.17866720584E+03  0.82288500749E+01  0.24242398854E+03  0.46179982096E+03  0.35000000000E+03 0.  0.
 -1000006    1    1    2    0  503  0.17866720584E+03 -0.82288500749E+01 -0.22442695182E+03  0.45261146817E+03  0.35000000000E+03 0.  0.
<scales pt_clust_1="13000.00000" pt_clust_2="13000.00000"></scales>
<clustering>
<clus scale="  393.052">  1  3  2 -1</clus>
<clus scale="  393.052">  1  3  2 -1</clus>
</clustering>
</event>
<event>
 5   1  0.3464723E-02  0.4364651E+03  0.7816531E-02  0.1031837E+00
       21   -1    0    0  503  502  0.00000000000E+00  0.00000000000E+00  0.17507356642E+04  0.17507356642E+04  0.00000000000E+00 0.  1.
       21   -1    0    0  504  503  0.00000000000E+00  0.00000000000E+00 -0.16605797531E+03  0.16605797531E+03  0.00000000000E+00 0.  1.
  1000006    1    1    2  501    0 -0.14428691364E+03  0.76764486789E+02  0.37292950102E+03  0.53692449433E+03  0.35000000000E+03 0.  0.
 -1000006    1    1    2    0  502  0.27510620122E+03 -0.16650684651E+03  0.10536864156E+04  0.11559251768E+04  0.35000000000E+03 0.  0.
       21    1    1    2  504  501 -0.13081928758E+03  0.89742359720E+02  0.15806177229E+03  0.22394396842E+03  0.00000000000E+00 0.  1.
<scales pt_clust_1="13000.00000" pt_clust_2="13000.00000" pt_clust_3="158.64229"></scales>
<clustering>
<clus scale="  158.642">  2  5  1 -1</clus>
<clus scale="  436.465">  2  3  1 -1</clus>
<clus scale="  436.465">  1  3  2 -1</clus>
</clustering>
</event>
<event>
 5   1  0.3464723E-02  0.3742044E+03  0.7816531E-02  0.1053097E+00
       21   -1    0    0  501  502  0.00000000000E+00  0.00000000000E+00  0.62627100482E+03  0.62627100482E+03  0.00000000000E+00 0. -1.
       21   -1    0    0  502  503  0.00000000000E+00  0.00000000000E+00 -0.11970511664E+04  0.11970511664E+04  0.00000000000E+00 0.  1.
  1000006    1    1    2  501    0 -0.25237707661E+02 -0.13392433643E+03  0.47993092093E+03  0.60943117629E+03  0.35000000000E+03 0.  0.
 -1000006    1    1    2    0  504 -0.23200608945E+02  0.11243231567E+03 -0.34022149301E+03  0.50142791921E+03  0.35000000000E+03 0.  0.
       21    1    1    2  504  503  0.48438316606E+02  0.21492020759E+02 -0.71048958946E+03  0.71246307567E+03  0.00000000000E+00 0.  1.
<scales pt_clust_1="13000.00000" pt_clust_2="13000.00000" pt_clust_3="52.99224"></scales>
<clustering>
<clus scale="   52.992">  2  5  1 -1</clus>
<clus scale="  374.204">  2  4  1 -1</clus>
<clus scale="  374.204">  1  3  2 -1</clus>
</clustering>
</event>
<event>
 4   0  0.3464723E-02  0.3830300E+03  0.7816531E-02  0.1049819E+00
        1   -1    0    0  502    0  0.00000000000E+00  0.00000000000E+00  0.62670235321E+03  0.62670235321E+03  0.00000000000E+00 0.  1.
       -1   -1    0    0    0  501  0.00000000000E+00  0.00000000000E+00 -0.26423790646E+03  0.26423790646E+03  0.00000000000E+00 0. -1.
  1000006    1    1    2  502    0  0.11073589065E+03  0.10931401905E+03  0.33167328903E+03  0.50667461244E+03  0.35000000000E+03 0.  0.
 -1000006    1    1    2    0  501 -0.11073589065E+03 -0.10931401905E+03  0.30791157724E+02  0.38426564722E+03  0.35000000000E+03 0.  0.
<scales pt_clust_1="13000.00000" pt_clust_2="13000.00000"></scales>
<clustering>
<clus scale="  543.042">  3  4 -1 -1</clus>
<clus scale="  383.030">  1  3  2 -1</clus>
</clustering>
</event>
<event>
 5   1  0.3464723E-02  0.4508624E+03  0.7816531E-02  0.1027465E+00
       21   -1    0    0  501  502  0.00000000000E+00  0.00000000000E+00  0.78003612493E+03  0.78003612493E+03  0.00000000000E+00 0.  1.
       21   -1    0    0  504  503  0.00000000000E+00  0.00000000000E+00 -0.63487714843E+03  0.63487714843E+03  0.00000000000E+00 0. -1.
  1000006    1    1    2  501    0  0.28206428043E+03 -0.58233340993E+02  0.58783119584E+03  0.74229165097E+03  0.35000000000E+03 0.  0.
 -1000006    1    1    2    0  503 -0.26417058581E+03 -0.16660867267E+01 -0.41672121933E+03  0.60493425171E+03  0.35000000000E+03 0.  0.
       21    1    1    2  504  502 -0.17893694622E+02  0.59899427720E+02 -0.25951000008E+02  0.67687370682E+02  0.00000000000E+00 0. -1.
<scales pt_clust_1="13000.00000" pt_clust_2="13000.00000" pt_clust_3="62.51500"></scales>
<clustering>
<clus scale="   62.515">  2  5  1 -1</clus>
<clus scale="  450.862">  2  4  1 -1</clus>
<clus scale="  450.862">  1  3  2 -1</clus>
</clustering>
</event>
<event>
 5   1  0.3464723E-02  0.4415551E+03  0.7816531E-02  0.1030271E+00
       21   -1    0    0  501  502  0.00000000000E+00  0.00000000000E+00  0.48768430460E+03  0.48768430460E+03  0.00000000000E+00 0.  1.
       21   -1    0    0  504  503  0.00000000000E+00  0.00000000000E+00 -0.43192377625E+03  0.43192377625E+03  0.00000000000E+00 0.  1.
  1000006    1    1    2  501    0  0.15268262341E+03  0.20527718469E+03  0.57325381043E+02  0.43730642044E+03  0.35000000000E+03 0.  0.
 -1000006    1    1    2    0  503 -0.17761411199E+03 -0.22323827187E+03 -0.29549799341E+01  0.45154272302E+03  0.35000000000E+03 0.  0.
       21    1    1    2  504  502  0.24931488586E+02  0.17961087180E+02  0.13901272438E+01  0.30758937393E+02  0.00000000000E+00 0.  1.
<scales pt_clust_1="13000.00000" pt_clust_2="13000.00000" pt_clust_3="30.72751"></scales>
<clustering>
<clus scale="   30.728">  2  5  1 -1</clus>
<clus scale="  441.555">  2  4  1 -1</clus>
<clus scale="  441.555">  1  3  2 -1</clus>
</clustering>
</event>
<event>
 5   1  0.3464723E-02  0.3961787E+03  0.7816531E-02  0.1045111E+00
       21   -1    0    0  504  502  0.00000000000E+00  0.00000000000E+00  0.12591383662E+04  0.12591383662E+04  0.00000000000E+00 0.  1.
       21   -1    0    0  502  503  0.00000000000E+00  0.00000000000E+00 -0.20318572164E+03  0.20318572164E+03  0.00000000000E+00 0.  1.
  1000006    1    1    2  501    0  0.12098722922E+03 -0.16541991369E+03  0.38322996502E+03  0.55800256592E+03  0.35000000000E+03 0.  0.
 -1000006    1    1    2    0  503 -0.17856819165E+03  0.57146298911E+02  0.26205923448E+03  0.47573873179E+03  0.35000000000E+03 0.  0.
       21    1    1    2  504  501  0.57580962436E+02  0.10827361478E+03  0.41066344509E+03  0.42858279017E+03  0.00000000000E+00 0.  1.
<scales pt_clust_1="13000.00000" pt_clust_2="13000.00000" pt_clust_3="122.63255"></scales>
<clustering>
<clus scale="  122.633">  1  5  2 -1</clus>
<clus scale="  396.179">  2  4  1 -1</clus>
<clus scale="  396.179">  1  3  2 -1</clus>
</clustering>
</event>
<event>
 5   1  0.3464723E-02  0.5315017E+03  0.7816531E-02  0.1005869E+00
       21   -1    0    0  501  502  0.00000000000E+00  0.00000000000E+00  0.85729467715E+03  0.85729467715E+03  0.00000000000E+00 0.  1.
       21   -1    0    0  504  503  0.00000000000E+00  0.00000000000E+00 -0.64330289275E+03  0.64330289275E+03  0.00000000000E+00 0. -1.
  1000006    1    1    2  501    0 -0.44562656374E+03  0.19340869328E+03  0.13760150325E+03  0.61434854166E+03  0.35000000000E+03 0.  0.
 -1000006    1    1    2    0  503  0.12718989646E+03 -0.36481470173E+03  0.45176107828E+02  0.52326658319E+03  0.35000000000E+03 0.  0.
       21    1    1    2  504  502  0.31843666728E+03  0.17140600845E+03  0.31214173318E+02  0.36298244506E+03  0.00000000000E+00 0. -1.
<scales pt_clust_1="13000.00000" pt_clust_2="13000.00000" pt_clust_3="361.63784"></scales>
<clustering>
<clus scale="  361.638">  2  5  1 -1</clus>
<clus scale="  531.502">  1  3  2 -1</clus>
<clus scale="  531.502">  1  3  2 -1</clus>
</clustering>
</event>
<event>
 5   1  0.3464723E-02  0.3622217E+03  0.7816531E-02  0.1057708E+00
        2   -1    0    0  503    0  0.00000000000E+00  0.00000000000E+00  0.10782659657E+04  0.10782659657E+04  0.00000000000E+00 0. -1.
       21   -1    0    0  501  503  0.00000000000E+00  0.00000000000E+00 -0.31177393649E+03  0.31177393649E+03  0.00000000000E+00 0. -1.
  1000006    1    1    2  501    0 -0.59276149563E+02 -0.67992231572E+02 -0.11586951489E+03  0.37955546359E+03  0.35000000000E+03 0.  0.
 -1000006    1    1    2    0  502  0.10323409583E+03  0.47590101638E+02  0.47808514195E+03  0.60331376519E+03  0.35000000000E+03 0.  0.
        2    1    1    2  502    0 -0.43957946266E+02  0.20402129934E+02  0.40427640215E+03  0.40717067341E+03  0.00000000000E+00 0. -1.
<scales pt_clust_1="13000.00000" pt_clust_2="13000.00000" pt_clust_3="48.46182"></scales>
<clustering>
<clus scale="   48.462">  1  5  2 -1</clus>
<clus scale="  362.222">  2  3  1 -1</clus>
<clus scale="  362.222">  2  3  1 -1</clus>
</clustering>
</event>
<event>
 4   0  0.3464723E-02  0.4231294E+03  0.7816531E-02  0.1036053E+00
       21   -1    0    0  503  502  0.00000000000E+00  0.00000000000E+00  0.32249047515E+03  0.32249047515E+03  0.00000000000E+00 0. -1.
       21   -1    0    0  501  503  0.00000000000E+00  0.00000000000E+00 -0.57633031238E+03  0.57633031238E+03  0.00000000000E+00 0. -1.
  1000006    1    1    2  501    0  0.21254951785E+03  0.10658889611E+03 -0.21302368928E+03  0.47372732928E+03  0.35000000000E+03 0.  0.
 -1000006    1    1    2    0  502 -0.21254951785E+03 -0.10658889611E+03 -0.40816147948E+02  0.42509345825E+03  0.35000000000E+03 0.  0.
<scales pt_clust_1="13000.00000" pt_clust_2="13000.00000"></scales>
<clustering>
<clus scale="  423.129">  2  3  1 -1</clus>
<clus scale="  423.129">  1  3  2 -1</clus>
</clustering>
</event>
<event>
 5   1  0.3464723E-02  0.3616192E+03  0.7816531E-02  0.1057945E+00
       21   -1    0    0  501  502  0.00000000000E+00  0.00000000000E+00  0.28289042249E+03  0.28289042249E+03  0.00000000000E+00 0. -1.
       21   -1    0    0  504  503  0.00000000000E+00  0.00000000000E+00 -0.62676338561E+03  0.62676338561E+03  0.00000000000E+00 0. -1.
  1000006    1    1    2  501    0  0.61562873735E+01  0.11097000480E+03  0.17313848208E+02  0.36763026423E+03  0.35000000000E+03 0.  0.
 -1000006    1    1    2    0  503  0.20323496898E+02 -0.81705904935E+02 -0.34724331894E+03  0.50016679416E+03  0.35000000000E+03 0.  0.
       21    1    1    2  504  502 -0.26479784271E+02 -0.29264099868E+02 -0.13943492388E+02  0.41856749708E+02  0.00000000000E+00 0. -1.
<scales pt_clust_1="13000.00000" pt_clust_2="13000.00000" pt_clust_3="39.46602"></scales>
<clustering>
<clus scale="   39.466">  1  5  2 -1</clus>
<clus scale="  361.619">  1  3  2 -1</clus>
<clus scale="  361.619">  1  3  2 -1</clus>
</clustering>
</event>
<event>
 4   0  0.3464723E-02  0.4734302E+03  0.7816531E-02  0.1020957E+00
       21   -1    0    0  501  502  0.00000000000E+00  0.00000000000E+00  0.15975259463E+04  0.15975259463E+04  0.00000000000E+00 0.  1.
       21   -1    0    0  502  503  0.00000000000E+00  0.00000000000E+00 -0.14238116212E+03  0.14238116212E+03  0.00000000000E+00 0. -1.
  1000006    1    1    2  501    0 -0.25641190667E+03 -0.18944407564E+03  0.83269871379E+03  0.95787435065E+03  0.35000000000E+03 0.  0.
 -1000006    1    1    2    0  503  0.25641190667E+03  0.18944407564E+03  0.62244607038E+03  0.78203275776E+03  0.35000000000E+03 0.  0.
<scales pt_clust_1="13000.00000" pt_clust_2="13000.00000"></scales>
<clustering>
<clus scale="  473.430">  1  3  2 -1</clus>
<clus scale="  473.430">  1  3  2 -1</clus>
</clustering>
</event>
<event>
 6   2  0.3464723E-02  0.3608154E+03  0.7816531E-02  0.1058261E+00
       21   -1    0    0  501  503  0.00000000000E+00  0.00000000000E+00  0.13509182510E+04  0.13509182510E+04  0.00000000000E+00 0. -1.
        2   -1    0    0  504    0  0.00000000000E+00  0.00000000000E+00 -0.88723452263E+03  0.88723452263E+03  0.00000000000E+00 0. -1.
  1000006    1    1    2  501    0 -0.26987551800E+02 -0.67921270232E+02  0.72804072030E+03  0.81110105247E+03  0.35000000000E+03 0.  0.
 -1000006    1    1    2    0  502  0.10389345840E+03  0.74404291516E+02  0.33656669929E+03  0.50210257156E+03  0.35000000000E+03 0.  0.
       21    1    1    2  504  503 -0.13093427330E+03  0.93100177795E+02  0.11661525302E+03  0.19852089126E+03  0.00000000000E+00 0. -1.
        2    1    1    2  502    0  0.54028366696E+02 -0.99583199079E+02 -0.71753894426E+03  0.72642825832E+03  0.00000000000E+00 0. -1.
<scales pt_clust_1="13000.00000" pt_clust_2="13000.00000" pt_clust_3="136.00832" pt_clust_4="113.29553"></scales>
<clustering>
<clus scale="  113.296">  2  6  1 -1</clus>
<clus scale="  136.008">  2  5  1 -1</clus>
<clus scale="  360.815">  1  3  2 -1</clus>
<clus scale="  360.815">  1  3  2 -1</clus>
</clustering>
</event>
<event>
 6   2  0.3464723E-02  0.5196864E+03  0.7816531E-02  0.1008764E+00
       21   -1    0    0  501  502  0.00000000000E+00  0.00000000000E+00  0.25670328729E+03  0.25670328729E+03  0.00000000000E+00 0.  1.
       21   -1    0    0  504  503  0.00000000000E+00  0.00000000000E+00 -0.15707704066E+04  0.15707704066E+04  0.00000000000E+00 0. -1.
  1000006    1    1    2  501    0  0.25064133575E+03  0.29442840528E+03 -0.30254787214E+03  0.60294641550E+03  0.35000000000E+03 0.  0.
 -1000006    1    1    2    0  503 -0.27213884151E+03 -0.27018648733E+03 -0.98397213422E+03  0.11125472790E+04  0.35000000000E+03 0.  0.
       21    1    1    2  504  505  0.53002630234E+02 -0.48341956708E+01 -0.46257629669E+02  0.70515364015E+02  0.00000000000E+00 0.  1.
       21    1    1    2  505  502 -0.31505124477E+02 -0.19407722279E+02  0.18710516730E+02  0.41464635398E+02  0.00000000000E+00 0. -1.
<scales pt_clust_1="13000.00000" pt_clust_2="13000.00000" pt_clust_3="51.65139" pt_clust_4="37.00314"></scales>
<clustering>
<clus scale="   37.003">  1  6  2 -1</clus>
<clus scale="   51.651">  1  5  2 -1</clus>
<clus scale="  519.686">  2  4  1 -1</clus>
<clus scale="  519.686">  1  3  2 -1</clus>
</clustering>
</event>
<event>
 5   1  0.3464723E-02  0.3870201E+03  0.7816531E-02  0.1048369E+00
       21   -1    0    0  501  502  0.00000000000E+00  0.00000000000E+00  0.83437600934E+03  0.83437600934E+03  0.00000000000E+00 0.  1.
       21   -1    0    0  504  503  0.00000000000E+00  0.00000000000E+00 -0.19418553273E+03  0.19418553273E+03  0.00000000000E+00 0.  1.
  1000006    1    1    2  501    0 -0.13896506972E+03 -0.80734627587E+02  0.31080998556E+03  0.49490627175E+03  0.35000000000E+03 0.  0.
 -1000006    1    1    2    0  503  0.13096647478E+03  0.10994550280E+03  0.30775826523E+03  0.49644272673E+03  0.35000000000E+03 0.  0.
       21    1    1    2  504  502  0.79985949356E+01 -0.29210875210E+02  0.21622225812E+02  0.37212543592E+02  0.00000000000E+00 0.  1.
<scales pt_clust_1="13000.00000" pt_clust_2="13000.00000" pt_clust_3="30.28618"></scales>
<clustering>
<clus scale="   30.286">  2  5  1 -1</clus>
<clus scale="  387.020">  1  3  2 -1</clus>
<clus scale="  387.020">  1  3  2 -1</clus>
</clustering>
</event>
<event>
 4   0  0.3464723E-02  0.9478795E+03  0.7816531E-02  0.9367633E-01
       21   -1    0    0  503  502  0.00000000000E+00  0.00000000000E+00  0.18104914453E+04  0.18104914453E+04  0.00000000000E+00 0.  1.
       21   -1    0    0  501  503  0.00000000000E+00  0.00000000000E+00 -0.54883574668E+03  0.54883574668E+03  0.00000000000E+00 0. -1.
  1000006    1    1    2  501    0 -0.43914829259E+03 -0.76362581234E+03  0.26571496979E+03  0.98441863520E+03  0.35000000000E+03 0.  0.
 -1000006    1    1    2    0  502  0.43914829259E+03  0.76362581234E+03  0.99594072885E+03  0.13749085568E+04  0.35000000000E+03 0.  0.
<scales pt_clust_1="13000.00000" pt_clust_2="13000.00000"></scales>
<clustering>
<clus scale="  947.880">  2  3  1 -1</clus>
<clus scale="  947.880">  1  3  2 -1</clus>
</clustering>
</event>
<event>
 5   1  0.3464723E-02  0.3615341E+03  0.7816531E-02  0.1057978E+00
       -1   -1    0    0    0  501  0.00000000000E+00  0.00000000000E+00  0.17242526146E+03  0.17242526146E+03  0.00000000000E+00 0. -1.
       21   -1    0    0  502  503  0.00000000000E+00  0.00000000000E+00 -0.17820672036E+04  0.17820672036E+04  0.00000000000E+00 0. -1.
  1000006    1    1    2  502    0 -0.71240641604E+02 -0.12766194570E+03 -0.10089896506E+04  0.10779299218E+04  0.35000000000E+03 0.  0.
 -1000006    1    1    2    0  501  0.75460923321E+02 -0.12904077199E+03 -0.33331269363E+03  0.50590831533E+03  0.35000000000E+03 0.  0.
       -1    1    1    2    0  503 -0.42202817177E+01  0.25670271769E+03 -0.26733959798E+03  0.37065422795E+03  0.00000000000E+00 0. -1.
<scales pt_clust_1="13000.00000" pt_clust_2="13000.00000" pt_clust_3="256.73741"></scales>
<clustering>
<clus scale="  256.737">  1  5  2 -1</clus>
<clus scale="  361.534">  2  3  1 -1</clus>
<clus scale="  361.534">  2  3  1 -1</clus>
</clustering>
</event>
<event>
 5   1  0.3464723E-02  0.3824078E+03  0.7816531E-02  0.1050047E+00
       21   -1    0    0  501  502  0.00000000000E+00  0.00000000000E+00  0.88881524036E+03  0.88881524036E+03  0.00000000000E+00 0. -1.
       21   -1    0    0  504  503  0.00000000000E+00  0.00000000000E+00 -0.69281977995E+03  0.69281977995E+03  0.00000000000E+00 0. -1.
  1000006    1    1    2  501    0  0.53984658572E+01  0.14715484113E+03  0.55545431285E+03  0.67283964238E+03  0.35000000000E+03 0.  0.
 -1000006    1    1    2    0  503 -0.41434726495E+02 -0.16759458398E+03  0.13473654571E+03  0.41286646496E+03  0.35000000000E+03 0.  0.
       21    1    1    2  504  502  0.36036260638E+02  0.20439742848E+02 -0.49419539815E+03  0.49592891297E+03  0.00000000000E+00 0. -1.
<scales pt_clust_1="13000.00000" pt_clust_2="13000.00000" pt_clust_3="41.42940"></scales>
<clustering>
<clus scale="   41.429">  2  5  1 -1</clus>
<clus scale="  382.408">  2  4  1 -1</clus>
<clus scale="  382.408">  1  3  2 -1</clus>
</clustering>
</event>
<event>
 6   2  0.3464723E-02  0.3526546E+03  0.7816531E-02  0.1061531E+00
       21   -1    0    0  501  502  0.00000000000E+00  0.00000000000E+00  0.77995403063E+02  0.77995403063E+02  0.00000000000E+00 0.  1.
       21   -1    0    0  504  503  0.00000000000E+00  0.00000000000E+00 -0.24198434801E+04  0.24198434801E+04  0.00000000000E+00 0.  1.
  1000006    1    1    2  501    0  0.37312919150E+02 -0.84801811979E+02 -0.94606380172E+03  0.10129759712E+04  0.35000000000E+03 0.  0.
 -1000006    1    1    2    0  505  0.27188737671E+02  0.26006317472E+01 -0.10595591659E+04  0.11162041107E+04  0.35000000000E+03 0.  0.
       21    1    1    2  504  502 -0.49169446277E+02  0.45820140095E+02 -0.61466476833E+02  0.91078249104E+02  0.00000000000E+00 0. -1.
       21    1    1    2  505  503 -0.15332210545E+02  0.36381040137E+02 -0.27475863257E+03  0.27758055216E+03  0.00000000000E+00 0. -1.
<scales pt_clust_1="13000.00000" pt_clust_2="13000.00000" pt_clust_3="68.49352" pt_clust_4="39.47983"></scales>
<clustering>
<clus scale="   39.480">  2  6  1 -1</clus>
<clus scale="   68.494">  1  5  2 -1</clus>
<clus scale="  352.655">  1  3  2 -1</clus>
<clus scale="  352.655">  1  3  2 -1</clus>
</clustering>
</event>
<event>
 6   2  0.3464723E-02  0.8112868E+03  0.7816531E-02  0.9543822E-01
       21   -1    0    0  504  502  0.00000000000E+00  0.00000000000E+00  0.12980507712E+04  0.12980507712E+04  0.00000000000E+00 0. -1.
       21   -1    0    0  501  503  0.00000000000E+00  0.00000000000E+00 -0.95637738671E+03  0.95637738671E+03  0.00000000000E+00 0.  1.
  1000006    1    1    2  501    0  0.56980096854E+01 -0.64746382633E+03 -0.22658920620E+03  0.77011982320E+03  0.35000000000E+03 0.  0.
 -1000006    1    1    2    0  502  0.28558827894E+03  0.84544580918E+03  0.26414555339E+03  0.99428977401E+03  0.35000000000E+03 0.  0.
       21    1    1    2  504  505 -0.23412768832E+03 -0.15303717311E+03  0.30942901508E+03  0.41711205469E+03  0.00000000000E+00 0.  1.
       21    1    1    2  505  503 -0.57158600303E+02 -0.44944809737E+02 -0.53119777872E+01  0.72906506012E+02  0.00000000000E+00 0.  1.
<scales pt_clust_1="13000.00000" pt_clust_2="13000.00000" pt_clust_3="283.95928" pt_clust_4="72.71273"></scales>
<clustering>
<clus scale="   72.713">  2  6  1 -1</clus>
<clus scale="  283.959">  1  5  2 -1</clus>
<clus scale="  811.287">  1  4  2 -1</clus>
<clus scale="  811.287">  1  3  2 -1</clus>
</clustering>
</event>
<event>
 5   1  0.3464723E-02  0.3705609E+03  0.7816531E-02  0.1054479E+00
        4   -1    0    0  503    0  0.00000000000E+00  0.00000000000E+00  0.33303711593E+03  0.33303711593E+03  0.00000000000E+00 0.  1.
       21   -1    0    0  501  503  0.00000000000E+00  0.00000000000E+00 -0.10563188859E+04  0.10563188859E+04  0.00000000000E+00 0.  1.
  1000006    1    1    2  501    0  0.94896403219E+02 -0.74002196539E+02 -0.68276308741E+03  0.77662544767E+03  0.35000000000E+03 0.  0.
 -1000006    1    1    2    0  502 -0.11891035560E+03  0.48020492727E+02 -0.21795687901E+03  0.43179953856E+03  0.35000000000E+03 0.  0.
        4    1    1    2  502    0  0.24013952386E+02  0.25981703812E+02  0.17743819646E+03  0.18093101560E+03  0.00000000000E+00 0.  1.
<scales pt_clust_1="13000.00000" pt_clust_2="13000.00000" pt_clust_3="35.37964"></scales>
<clustering>
<clus scale="   35.380">  1  5  2 -1</clus>
<clus scale="  370.561">  1  4  2 -1</clus>
<clus scale="  370.561">  2  3  1 -1</clus>
</clustering>
</event>
<event>
 4   0  0.3464723E-02  0.4867033E+03  0.7816531E-02  0.1017309E+00
       -2   -1    0    0    0  501  0.00000000000E+00  0.00000000000E+00  0.32328211716E+03  0.32328211716E+03  0.00000000000E+00 0. -1.
        2   -1    0    0  502    0  0.00000000000E+00  0.00000000000E+00 -0.91267771160E+03  0.91267771160E+03  0.00000000000E+00 0.  1.
  1000006    1    1    2  502    0  0.47012720980E+02 -0.33491772367E+03 -0.20298538302E+02  0.48712637808E+03  0.35000000000E+03 0.  0.
 -1000006    1    1    2    0  501 -0.47012720980E+02  0.33491772367E+03 -0.56909705614E+03  0.74883345069E+03  0.35000000000E+03 0.  0.
<scales pt_clust_1="13000.00000" pt_clust_2="13000.00000"></scales>
<clustering>
<clus scale="  901.504">  3  4 -1 -1</clus>
<clus scale="  486.703">  2  3  1 -1</clus>
</clustering>
</event>
<event>
 6   2  0.3464723E-02  0.4076301E+03  0.7816531E-02  0.1041169E+00
       21   -1    0    0  501  502  0.00000000000E+00  0.00000000000E+00  0.45969217332E+03  0.45969217332E+03  0.00000000000E+00 0.  1.
       21   -1    0    0  504  503  0.00000000000E+00  0.00000000000E+00 -0.10011325097E+04  0.10011325097E+04  0.00000000000E+00 0.  1.
  1000006    1    1    2  501    0 -0.19432577501E+03  0.49207932510E+02  0.23000701864E+03  0.46431363977E+03  0.35000000000E+03 0.  0.
 -1000006    1    1    2    0  503  0.19529718036E+03 -0.21617900143E+03 -0.51587997793E+03  0.68811808649E+03  0.35000000000E+03 0.  0.
       21    1    1    2  504  505  0.20033859090E+02  0.53535635219E+02 -0.89050046516E+02  0.10581743964E+03  0.00000000000E+00 0.  1.
       21    1    1    2  505  502 -0.21005264441E+02  0.11343543370E+03 -0.16651733055E+03  0.20257551709E+03  0.00000000000E+00 0.  1.
<scales pt_clust_1="13000.00000" pt_clust_2="13000.00000" pt_clust_3="30.77337" pt_clust_4="172.60224"></scales>
<clustering>
<clus scale="   30.773">  5  6 -1 -1</clus>
<clus scale="  172.602">  2  5  1 -1</clus>
<clus scale="  407.630">  1  3  2 -1</clus>
<clus scale="  407.630">  1  3  2 -1</clus>
</clustering>
</event>
<event>
 5   1  0.3464723E-02  0.3889879E+03  0.7816531E-02  0.1047661E+00
       21   -1    0    0  501  502  0.00000000000E+00  0.00000000000E+00  0.99585411528E+03  0.99585411528E+03  0.00000000000E+00 0. -1.
       21   -1    0    0  504  503  0.00000000000E+00  0.00000000000E+00 -0.30345549302E+03  0.30345549302E+03  0.00000000000E+00 0. -1.
  1000006    1    1    2  501    0 -0.15407006278E+03  0.39910938424E+01  0.21605060739E+03  0.43923954516E+03  0.35000000000E+03 0.  0.
 -1000006    1    1    2    0  503  0.17753041729E+03  0.35100308223E+02  0.12736628863E+02  0.39422240222E+03  0.35000000000E+03 0.  0.
       21    1    1    2  504  502 -0.23460354512E+02 -0.39091402066E+02  0.46361138600E+03  0.46584766091E+03  0.00000000000E+00 0. -1.
<scales pt_clust_1="13000.00000" pt_clust_2="13000.00000" pt_clust_3="45.59085"></scales>
<clustering>
<clus scale="   45.591">  1  5  2 -1</clus>
<clus scale="  388.988">  1  3  2 -1</clus>
<clus scale="  388.988">  1  3  2 -1</clus>
</clustering>
</event>
<event>
 6   2  0.3464723E-02  0.3835102E+03  0.7816531E-02  0.1049644E+00
       21   -1    0    0  505  502  0.00000000000E+00  0.00000000000E+00  0.34022143098E+03  0.34022143098E+03  0.00000000000E+00 0.  1.
       21   -1    0    0  504  503  0.00000000000E+00  0.00000000000E+00 -0.27289699329E+04  0.27289699329E+04  0.00000000000E+00 0. -1.
  1000006    1    1    2  501    0 -0.74537252332E+02 -0.11609903013E+03 -0.10063319876E+04  0.10743550885E+04  0.35000000000E+03 0.  0.
 -1000006    1    1    2    0  503  0.68178349974E+02  0.15592434703E+03 -0.16336642205E+04  0.16793806819E+04  0.35000000000E+03 0.  0.
       21    1    1    2  504  502 -0.25934053404E+02 -0.38275277691E+02 -0.13951472177E+02  0.48293017965E+02  0.00000000000E+00 0. -1.
       21    1    1    2  505  501  0.32292955761E+02 -0.15500392144E+01  0.26519917833E+03  0.26716257560E+03  0.00000000000E+00 0.  1.
<scales pt_clust_1="13000.00000" pt_clust_2="13000.00000" pt_clust_3="42.81193" pt_clust_4="32.33013"></scales>
<clustering>
<clus scale="   32.330">  1  6  2 -1</clus>
<clus scale="   42.812">  1  5  2 -1</clus>
<clus scale="  383.510">  2  4  1 -1</clus>
<clus scale="  383.510">  1  3  2 -1</clus>
</clustering>
</event>
<event>
 5   1  0.3464723E-02  0.3783987E+03  0.7816531E-02  0.1051527E+00
       21   -1    0    0  502  503  0.00000000000E+00  0.00000000000E+00  0.14222154490E+03  0.14222154490E+03  0.00000000000E+00 0. -1.
        2   -1    0    0  501    0  0.00000000000E+00  0.00000000000E+00 -0.14037665368E+04  0.14037665368E+04  0.00000000000E+00 0.  1.
  1000006    1    1    2  501    0  0.16817385680E+03  0.33562591658E+02 -0.74988112118E+03  0.84512164188E+03  0.35000000000E+03 0.  0.
 -1000006    1    1    2    0  503 -0.89180759945E+02 -0.76317781657E+02 -0.48019097907E+03  0.60569050522E+03  0.35000000000E+03 0.  0.
        2    1    1    2  502    0 -0.78993096857E+02  0.42755189999E+02 -0.31472891692E+02  0.95175934639E+02  0.00000000000E+00 0.  1.
<scales pt_clust_1="13000.00000" pt_clust_2="13000.00000" pt_clust_3="89.82158"></scales>
<clustering>
<clus scale="   89.822">  1  5  2 -1</clus>
<clus scale="  464.985">  3  4 -1 -1</clus>
<clus scale="  378.399">  1  3  2 -1</clus>
</clustering>
</event>
<event>
 6   2  0.3464723E-02  0.8625056E+03  0.7816531E-02  0.9473704E-01
        2   -1    0    0  504    0  0.00000000000E+00  0.00000000000E+00  0.26323099453E+04  0.26323099453E+04  0.00000000000E+00 0.  1.
       21   -1    0    0  502  503  0.00000000000E+00  0.00000000000E+00 -0.46057259233E+03  0.46057259233E+03  0.00000000000E+00 0. -1.
  1000006    1    1    2  501    0  0.66025630926E+03  0.17258631054E+03  0.12051117786E+04  0.14284673001E+04  0.35000000000E+03 0.  0.
 -1000006    1    1    2    0  503 -0.83133396982E+03 -0.11825285509E+03  0.28704634065E+03  0.95393684738E+03  0.35000000000E+03 0.  0.
       21    1    1    2  504  501  0.87518331489E+02  0.21587664366E+02  0.23245049245E+03  0.24931649974E+03  0.00000000000E+00 0. -1.
        2    1    1    2  502    0  0.83559329067E+02 -0.75921119820E+02  0.44712874128E+03  0.46116189043E+03  0.00000000000E+00 0.  1.
<scales pt_clust_1="13000.00000" pt_clust_2="13000.00000" pt_clust_3="90.14148" pt_clust_4="123.26504"></scales>
<clustering>
<clus scale="   90.141">  1  5  2 -1</clus>
<clus scale="  123.265">  1  6  2 -1</clus>
<clus scale="  862.506">  1  3  2 -1</clus>
<clus scale="  862.506">  2  3  1 -1</clus>
</clustering>
</event>
<event>
 6   2  0.3464723E-02  0.3864872E+03  0.7816531E-02  0.1048562E+00
       21   -1    0    0  504  503  0.00000000000E+00  0.00000000000E+00  0.39474241586E+03  0.39474241586E+03  0.00000000000E+00 0.  1.
        2   -1    0    0  501    0  0.00000000000E+00  0.00000000000E+00 -0.13333841854E+04  0.13333841854E+04  0.00000000000E+00 0. -1.
  1000006    1    1    2  501    0 -0.10409626934E+03 -0.72769121642E+02 -0.12386790876E+03  0.39239602085E+03  0.35000000000E+03 0.  0.
 -1000006    1    1    2    0  503  0.64311453228E+02  0.18661762686E+03  0.97768773096E+02  0.41354665355E+03  0.35000000000E+03 0.  0.
       21    1    1    2  504  502  0.26832780806E+02 -0.21417754291E+02 -0.37783753424E+03  0.37939414941E+03  0.00000000000E+00 0. -1.
        2    1    1    2  502    0  0.12952035309E+02 -0.92430750924E+02 -0.53470509965E+03  0.54278977747E+03  0.00000000000E+00 0. -1.
<scales pt_clust_1="13000.00000" pt_clust_2="13000.00000" pt_clust_3="34.01192" pt_clust_4="133.00051"></scales>
<clustering>
<clus scale="   34.012">  5  6 -1 -1</clus>
<clus scale="  133.001">  2  5  1 -1</clus>
<clus scale="  386.487">  2  3  1 -1</clus>
<clus scale="  386.487">  1  3  2 -1</clus>
</clustering>
</event>
<event>
 5   1  0.3464723E-02  0.5758504E+03  0.7816531E-02  0.9956815E-01
       21   -1    0    0  504  502  0.00000000000E+00  0.00000000000E+00  0.17391828072E+04  0.17391828072E+04  0.00000000000E+00 0. -1.
       21   -1    0    0  502  503  0.00000000000E+00  0.00000000000E+00 -0.20887067275E+03  0.20887067275E+03  0.00000000000E+00 0.  1.
  1000006    1    1    2  501    0  0.37369818703E+03 -0.23637462768E+03  0.71161120849E+03  0.90797236282E+03  0.35000000000E+03 0.  0.
 -1000006    1    1    2    0  503 -0.39632033705E+03  0.25644841677E+03  0.68282762617E+03  0.90088243799E+03  0.35000000000E+03 0.  0.
       21    1    1    2  504  501  0.22622150011E+02 -0.20073789090E+02  0.13587329981E+03  0.13919867916E+03  0.00000000000E+00 0.  1.
<scales pt_clust_1="13000.00000" pt_clust_2="13000.00000" pt_clust_3="30.24432"></scales>
<clustering>
<clus scale="   30.244">  1  5  2 -1</clus>
<clus scale="  575.850">  1  3  2 -1</clus>
<clus scale="  575.850">  1  3  2 -1</clus>
</clustering>
</event>
<event>
 6   2  0.3464723E-02  0.4321974E+03  0.7816531E-02  0.1033168E+00
       21   -1    0    0  504  502  0.00000000000E+00  0.00000000000E+00  0.24410897420E+04  0.24410897420E+04  0.00000000000E+00 0. -1.
       21   -1    0    0  501  503  0.00000000000E+00  0.00000000000E+00 -0.21995552681E+03  0.21995552681E+03  0.00000000000E+00 0. -1.
  1000006    1    1    2  501    0  0.17271608634E+03 -0.15252859388E+03  0.18286305564E+03  0.45720314473E+03  0.35000000000E+03 0.  0.
 -1000006    1    1    2    0  505 -0.11922830761E+03  0.37422854642E+03  0.12183747136E+04  0.13271018563E+04  0.35000000000E+03 0.  0.
       21    1    1    2  504  503 -0.36793403161E+02 -0.20698842533E+02  0.11772170441E+02  0.43826710979E+02  0.00000000000E+00 0. -1.
       21    1    1    2  505  502 -0.16694375570E+02 -0.20100111001E+03  0.80812427556E+03  0.83291355683E+03  0.00000000000E+00 0.  1.
<scales pt_clust_1="13000.00000" pt_clust_2="13000.00000" pt_clust_3="42.21607" pt_clust_4="203.14316"></scales>
<clustering>
<clus scale="   42.216">  2  5  1 -1</clus>
<clus scale="  203.143">  1  6  2 -1</clus>
<clus scale="  432.197">  1  4  2 -1</clus>
<clus scale="  432.197">  1  3  2 -1</clus>
</clustering>
</event>
<event>
 6   2  0.3464723E-02  0.3677405E+03  0.7816531E-02  0.1055560E+00
        2   -1    0    0  504    0  0.00000000000E+00  0.00000000000E+00  0.36276362557E+04  0.36276362557E+04  0.00000000000E+00 0.  1.
       21   -1    0    0  501  503  0.00000000000E+00  0.00000000000E+00 -0.44152268474E+03  0.44152268474E+03  0.00000000000E+00 0. -1.
  1000006    1    1    2  501    0  0.10767508954E+03  0.24217400138E+02 -0.28003496975E+03  0.46162754647E+03  0.35000000000E+03 0.  0.
 -1000006    1    1    2    0  502 -0.12172106628E+03 -0.37199248973E+02  0.45152464511E+03  0.58529847705E+03  0.35000000000E+03 0.  0.
       21    1    1    2  504  503  0.52411428711E+02 -0.42310221723E+02  0.33195424383E+03  0.33871925354E+03  0.00000000000E+00 0. -1.
        2    1    1    2  502    0 -0.38365451972E+02  0.55292070559E+02  0.26826696518E+04  0.26835136634E+04  0.00000000000E+00 0.  1.
<scales pt_clust_1="13000.00000" pt_clust_2="13000.00000" pt_clust_3="44.93453" pt_clust_4="67.29874"></scales>
<clustering>
<clus scale="   67.299">  1  6  2 -1</clus>
<clus scale="   44.935">  1  5  2 -1</clus>
<clus scale="  367.740">  2  3  1 -1</clus>
<clus scale="  367.740">  2  3  1 -1</clus>
</clustering>
</event>
<event>
 5   1  0.3464723E-02  0.4208675E+03  0.7816531E-02  0.1036784E+00
       21   -1    0    0  503  502  0.00000000000E+00  0.00000000000E+00  0.19295489323E+04  0.19295489323E+04  0.00000000000E+00 0.  1.
       21   -1    0    0  501  503  0.00000000000E+00  0.00000000000E+00 -0.11038687713E+03  0.11038687713E+03  0.00000000000E+00 0. -1.
  1000006    1    1    2  501    0  0.11099990609E+03 -0.21123962499E+03  0.63116850691E+03  0.76014264611E+03  0.35000000000E+03 0.  0.
 -1000006    1    1    2    0  504 -0.71130466024E+02  0.21734685871E+03  0.94335229120E+03  0.10318491874E+04  0.35000000000E+03 0.  0.
       21    1    1    2  504  502 -0.39869440065E+02 -0.61072337200E+01  0.24464125706E+03  0.24794397595E+03  0.00000000000E+00 0. -1.
<scales pt_clust_1="13000.00000" pt_clust_2="13000.00000" pt_clust_3="40.33448"></scales>
<clustering>
<clus scale="   40.334">  1  5  2 -1</clus>
<clus scale="  420.867">  1  4  2 -1</clus>
<clus scale="  420.867">  1  3  2 -1</clus>
</clustering>
</event>
<event>
 5   1  0.3464723E-02  0.3526463E+03  0.7816531E-02  0.1061534E+00
       21   -1    0    0  504  502  0.00000000000E+00  0.00000000000E+00  0.10423719007E+04  0.10423719007E+04  0.00000000000E+00 0.  1.
       21   -1    0    0  502  503  0.00000000000E+00  0.00000000000E+00 -0.17493653528E+03  0.17493653528E+03  0.00000000000E+00 0.  1.
  1000006    1    1    2  501    0 -0.56884484692E+02  0.16607657946E+02  0.58361980736E+03  0.68309863010E+03  0.35000000000E+03 0.  0.
 -1000006    1    1    2    0  503  0.36644604479E+02  0.17456426748E+02  0.13030608173E+03  0.37566904159E+03  0.35000000000E+03 0.  0.
       21    1    1    2  504  501  0.20239880213E+02 -0.34064084694E+02  0.15350947633E+03  0.15854076429E+03  0.00000000000E+00 0. -1.
<scales pt_clust_1="13000.00000" pt_clust_2="13000.00000" pt_clust_3="39.62341"></scales>
<clustering>
<clus scale="   39.623">  1  5  2 -1</clus>
<clus scale="  352.646">  1  3  2 -1</clus>
<clus scale="  352.646">  1  3  2 -1</clus>
</clustering>
</event>
<event>
 6   2  0.3464723E-02  0.3740529E+03  0.7816531E-02  0.1053154E+00
       21   -1    0    0  503  502  0.00000000000E+00  0.00000000000E+00  0.74610542061E+03  0.74610542061E+03  0.00000000000E+00 0. -1.
       21   -1    0    0  505  503  0.00000000000E+00  0.00000000000E+00 -0.46799368789E+03  0.46799368789E+03  0.00000000000E+00 0. -1.
  1000006    1    1    2  501    0 -0.19588534856E+03  0.51702553625E+01  0.26270091798E+03  0.47948886705E+03  0.35000000000E+03 0.  0.
 -1000006    1    1    2    0  502  0.52512327568E+02 -0.94907128721E+02  0.23489923789E+03  0.43524999666E+03  0.35000000000E+03 0.  0.
       21    1    1    2  504  501  0.69684763129E+02  0.10537266915E+03 -0.11716508844E+03  0.17229922683E+03  0.00000000000E+00 0. -1.
       21    1    1    2  505  504  0.73688257864E+02 -0.15635795792E+02 -0.10232333471E+03  0.12706101795E+03  0.00000000000E+00 0. -1.
<scales pt_clust_1="13000.00000" pt_clust_2="13000.00000" pt_clust_3="140.60185" pt_clust_4="75.32886"></scales>
<clustering>
<clus scale="   75.329">  2  6  1 -1</clus>
<clus scale="  140.602">  2  5  1 -1</clus>
<clus scale="  374.053">  2  3  1 -1</clus>
<clus scale="  374.053">  1  3  2 -1</clus>
</clustering>
</event>
<event>
 5   1  0.3464723E-02  0.3555662E+03  0.7816531E-02  0.1060353E+00
       21   -1    0    0  501  502  0.00000000000E+00  0.00000000000E+00  0.40981589631E+03  0.40981589631E+03  0.00000000000E+00 0. -1.
       21   -1    0    0  504  503  0.00000000000E+00  0.00000000000E+00 -0.38598245713E+03  0.38598245713E+03  0.00000000000E+00 0. -1.
  1000006    1    1    2  501    0 -0.58678087453E+02  0.15620270769E+02  0.10501535132E+02  0.35538344509E+03  0.35000000000E+03 0.  0.
 -1000006    1    1    2    0  503  0.59661802139E+02  0.53475572375E+02 -0.27577394336E+02  0.36011064988E+03  0.35000000000E+03 0.  0.
       21    1    1    2  504  502 -0.98371468518E+00 -0.69095843144E+02  0.40909298382E+02  0.80304258471E+02  0.00000000000E+00 0.  1.
<scales pt_clust_1="13000.00000" pt_clust_2="13000.00000" pt_clust_3="69.10285"></scales>
<clustering>
<clus scale="   69.103">  1  5  2 -1</clus>
<clus scale="  355.566">  1  3  2 -1</clus>
<clus scale="  355.566">  1  3  2 -1</clus>
</clustering>
</event>
<event>
 4   0  0.3464723E-02  0.3750470E+03  0.7816531E-02  0.1052780E+00
       21   -1    0    0  503  502  0.00000000000E+00  0.00000000000E+00  0.31075028936E+03  0.31075028936E+03  0.00000000000E+00 0. -1.
       21   -1    0    0  501  503  0.00000000000E+00  0.00000000000E+00 -0.46486204163E+03  0.46486204163E+03  0.00000000000E+00 0. -1.
  1000006    1    1    2  501    0  0.11973924370E+03  0.61828681295E+02 -0.13991889277E+03  0.40029685093E+03  0.35000000000E+03 0.  0.
 -1000006    1    1    2    0  502 -0.11973924370E+03 -0.61828681295E+02 -0.14192859491E+02  0.37531548006E+03  0.35000000000E+03 0.  0.
<scales pt_clust_1="13000.00000" pt_clust_2="13000.00000"></scales>
<clustering>
<clus scale="  375.047">  2  3  1 -1</clus>
<clus scale="  375.047">  1  3  2 -1</clus>
</clustering>
</event>
<event>
 5   1  0.3464723E-02  0.5398949E+03  0.7816531E-02  0.1003860E+00
       21   -1    0    0  501  502  0.00000000000E+00  0.00000000000E+00  0.36251056153E+03  0.36251056153E+03  0.00000000000E+00 0. -1.
       21   -1    0    0  504  503  0.00000000000E+00  0.00000000000E+00 -0.93207796338E+03  0.93207796338E+03  0.00000000000E+00 0.  1.
  1000006    1    1    2  501    0  0.42187006997E+03 -0.96092483065E+02 -0.12901633263E+03  0.57127343307E+03  0.35000000000E+03 0.  0.
 -1000006    1    1    2    0  503 -0.39229258333E+03  0.72292369462E+02 -0.43228077201E+03  0.68446060768E+03  0.35000000000E+03 0.  0.
       21    1    1    2  504  502 -0.29577486644E+02  0.23800113603E+02 -0.82702972049E+01  0.38854484163E+02  0.00000000000E+00 0. -1.
<scales pt_clust_1="13000.00000" pt_clust_2="13000.00000" pt_clust_3="37.96410"></scales>
<clustering>
<clus scale="   37.964">  1  5  2 -1</clus>
<clus scale="  539.895">  2  4  1 -1</clus>
<clus scale="  539.895">  1  3  2 -1</clus>
</clustering>
</event>
<event>
 6   2  0.3464723E-02  0.3601261E+03  0.7816531E-02  0.1058534E+00
        2   -1    0    0  501    0  0.00000000000E+00  0.00000000000E+00  0.20271073507E+04  0.20271073507E+04  0.00000000000E+00 0.  1.
       21   -1    0    0  502  503  0.00000000000E+00  0.00000000000E+00 -0.85157924683E+03  0.85157924683E+03  0.00000000000E+00 0.  1.
  1000006    1    1    2  501    0 -0.56460059920E+02  0.62027345096E+02  0.73166258933E+03  0.81539271184E+03  0.35000000000E+03 0.  0.
 -1000006    1    1    2    0  504  0.70088967388E+02 -0.45645558314E+02  0.63213514377E+03  0.72738629375E+03  0.35000000000E+03 0.  0.
       21    1    1    2  504  503  0.22887207177E+01 -0.46646285886E+02 -0.76086254710E+03  0.76229451645E+03  0.00000000000E+00 0.  1.
        2    1    1    2  502    0 -0.15917628186E+02  0.30264499103E+02  0.57259291783E+03  0.57361307547E+03  0.00000000000E+00 0.  1.
<scales pt_clust_1="13000.00000" pt_clust_2="13000.00000" pt_clust_3="46.68713" pt_clust_4="34.19519"></scales>
<clustering>
<clus scale="   34.195">  1  6  2 -1</clus>
<clus scale="   46.687">  2  5  1 -1</clus>
<clus scale="  360.126">  1  3  2 -1</clus>
<clus scale="  360.126">  2  3  1 -1</clus>
</clustering>
</event>
<event>
 4   0  0.3464723E-02  0.3531492E+03  0.7816531E-02  0.1061330E+00
       21   -1    0    0  503  502  0.00000000000E+00  0.00000000000E+00  0.71650224964E+03  0.71650224964E+03  0.00000000000E+00 0. -1.
       21   -1    0    0  501  503  0.00000000000E+00  0.00000000000E+00 -0.17471821960E+03  0.17471821960E+03  0.00000000000E+00 0. -1.
  1000006    1    1    2  501    0 -0.17306849348E+02 -0.43758901363E+02  0.24354074545E+03  0.42898305698E+03  0.35000000000E+03 0.  0.
 -1000006    1    1    2    0  502  0.17306849348E+02  0.43758901363E+02  0.29824328459E+03  0.46223741225E+03  0.35000000000E+03 0.  0.
<scales pt_clust_1="13000.00000" pt_clust_2="13000.00000"></scales>
<clustering>
<clus scale="  353.149">  2  3  1 -1</clus>
<clus scale="  353.149">  1  3  2 -1</clus>
</clustering>
</event>
<event>
 6   2  0.3464723E-02  0.4804866E+03  0.7816531E-02  0.1019002E+00
        1   -1    0    0  504    0  0.00000000000E+00  0.00000000000E+00  0.31329686781E+04  0.31329686781E+04  0.00000000000E+00 0.  1.
       21   -1    0    0  502  503  0.00000000000E+00  0.00000000000E+00 -0.15448333597E+03  0.15448333597E+03  0.00000000000E+00 0. -1.
  1000006    1    1    2  501    0 -0.19242544512E+03  0.27185821980E+03  0.98041403637E+03  0.10929986854E+04  0.35000000000E+03 0.  0.
 -1000006    1    1    2    0  503  0.38026378277E+03 -0.64693410205E+02  0.12739415727E+04  0.13763040771E+04  0.35000000000E+03 0.  0.
       21    1    1    2  504  501 -0.15351400864E+03 -0.15491527745E+03  0.72347219908E+03  0.75563041024E+03  0.00000000000E+00 0. -1.
        1    1    1    2  502    0 -0.34324329015E+02 -0.52249532152E+02  0.65753394393E+00  0.62518841347E+02  0.00000000000E+00 0.  1.
<scales pt_clust_1="13000.00000" pt_clust_2="13000.00000" pt_clust_3="226.07461" pt_clust_4="62.51538"></scales>
<clustering>
<clus scale="   62.515">  2  6  1 -1</clus>
<clus scale="  226.075">  1  5  2 -1</clus>
<clus scale="  754.743">  3  4 -1 -1</clus>
<clus scale="  480.487">  2  3  1 -1</clus>
</clustering>
</event>
<event>
 5   1  0.3464723E-02  0.4583665E+03  0.7816531E-02  0.1025256E+00
       21   -1    0    0  503  502  0.00000000000E+00  0.00000000000E+00  0.31174145497E+03  0.31174145497E+03  0.00000000000E+00 0. -1.
       21   -1    0    0  501  503  0.00000000000E+00  0.00000000000E+00 -0.16600169528E+04  0.16600169528E+04  0.00000000000E+00 0.  1.
  1000006    1    1    2  501    0  0.18045412712E+03  0.24273968120E+03 -0.84381923228E+03  0.96229784453E+03  0.35000000000E+03 0.  0.
 -1000006    1    1    2    0  504 -0.11967540491E+03 -0.26652181310E+03 -0.68197014415E+03  0.82032881024E+03  0.35000000000E+03 0.  0.
       21    1    1    2  504  502 -0.60778722210E+02  0.23782131900E+02  0.17751387864E+03  0.18913175296E+03  0.00000000000E+00 0. -1.
<scales pt_clust_1="13000.00000" pt_clust_2="13000.00000" pt_clust_3="65.26594"></scales>
<clustering>
<clus scale="   65.266">  1  5  2 -1</clus>
<clus scale="  458.367">  1  4  2 -1</clus>
<clus scale="  458.367">  1  3  2 -1</clus>
</clustering>
</event>
<event>
 5   1  0.3464723E-02  0.4817137E+03  0.7816531E-02  0.1018665E+00
       21   -1    0    0  503  502  0.00000000000E+00  0.00000000000E+00  0.67390428841E+03  0.67390428841E+03  0.00000000000E+00 0.  1.
       21   -1    0    0  501  503  0.00000000000E+00  0.00000000000E+00 -0.11815912234E+04  0.11815912234E+04  0.00000000000E+00 0. -1.
  1000006    1    1    2  501    0 -0.30714001847E+03 -0.11802662142E+03 -0.92379297614E+03  0.10412294354E+04  0.35000000000E+03 0.  0.
 -1000006    1    1    2    0  504  0.34543363355E+03  0.48786089419E+02  0.12104386645E+03  0.50877902405E+03  0.35000000000E+03 0.  0.
       21    1    1    2  504  502 -0.38293615080E+02  0.69240532003E+02  0.29506217472E+03  0.30548705239E+03  0.00000000000E+00 0.  1.
<scales pt_clust_1="13000.00000" pt_clust_2="13000.00000" pt_clust_3="79.12428"></scales>
<clustering>
<clus scale="   79.124">  1  5  2 -1</clus>
<clus scale="  481.714">  1  4  2 -1</clus>
<clus scale="  481.714">  1  3  2 -1</clus>
</clustering>
</event>
<event>
 5   1  0.3464723E-02  0.6525546E+03  0.7816531E-02  0.9801997E-01
       21   -1    0    0  504  502  0.00000000000E+00  0.00000000000E+00  0.25024065194E+03  0.25024065194E+03  0.00000000000E+00 0.  1.
       21   -1    0    0  501  503  0.00000000000E+00  0.00000000000E+00 -0.21887129684E+04  0.21887129684E+04  0.00000000000E+00 0. -1.
  1000006    1    1    2  501    0  0.25065766101E+03  0.55269679422E+03 -0.11423759526E+04  0.13400842610E+04  0.35000000000E+03 0.  0.
 -1000006    1    1    2    0  502 -0.20498453010E+03 -0.47787852448E+03 -0.53711976551E+03  0.82545998342E+03  0.35000000000E+03 0.  0.
       21    1    1    2  504  503 -0.45673130910E+02 -0.74818269747E+02 -0.25897659829E+03  0.27340937591E+03  0.00000000000E+00 0.  1.
<scales pt_clust_1="13000.00000" pt_clust_2="13000.00000" pt_clust_3="87.65733"></scales>
<clustering>
<clus scale="   87.657">  2  5  1 -1</clus>
<clus scale="  652.555">  1  4  2 -1</clus>
<clus scale="  652.555">  1  3  2 -1</clus>
</clustering>
</event>
<event>
 6   2  0.3464723E-02  0.4009412E+03  0.7816531E-02  0.1043454E+00
       21   -1    0    0  504  502  0.00000000000E+00  0.00000000000E+00  0.91638659938E+03  0.91638659938E+03  0.00000000000E+00 0.  1.
       21   -1    0    0  501  503  0.00000000000E+00  0.00000000000E+00 -0.25853628275E+03  0.25853628275E+03  0.00000000000E+00 0. -1.
  1000006    1    1    2  501    0 -0.99708960373E+02 -0.17140856357E+03  0.19513407566E+03  0.44710186751E+03  0.35000000000E+03 0.  0.
 -1000006    1    1    2    0  502  0.11136926687E+03  0.15762369542E+03  0.37269024229E+03  0.54648546153E+03  0.35000000000E+03 0.  0.
       21    1    1    2  504  505 -0.42869312262E+02  0.30481963091E+02  0.12249029799E+03  0.13330716826E+03  0.00000000000E+00 0.  1.
       21    1    1    2  505  503  0.31209005763E+02 -0.16697094945E+02 -0.32464299313E+02  0.48028384839E+02  0.00000000000E+00 0. -1.
<scales pt_clust_1="13000.00000" pt_clust_2="13000.00000" pt_clust_3="51.73180" pt_clust_4="35.39484"></scales>
<clustering>
<clus scale="   35.395">  2  6  1 -1</clus>
<clus scale="   51.732">  1  5  2 -1</clus>
<clus scale="  400.941">  2  3  1 -1</clus>
<clus scale="  400.941">  1  3  2 -1</clus>
</clustering>
</event>
<event>
 5   1  0.3464723E-02  0.3942144E+03  0.7816531E-02  0.1045802E+00
       21   -1    0    0  502  503  0.00000000000E+00  0.00000000000E+00  0.19052178003E+03  0.19052178003E+03  0.00000000000E+00 0.  1.
        1   -1    0    0  501    0  0.00000000000E+00  0.00000000000E+00 -0.11090892480E+04  0.11090892480E+04  0.00000000000E+00 0. -1.
  1000006    1    1    2  501    0  0.19340089853E+03 -0.19269341972E+02 -0.56534991021E+03  0.69274507293E+03  0.35000000000E+03 0.  0.
 -1000006    1    1    2    0  503 -0.16259369436E+03  0.32278751207E+02 -0.39511550684E+03  0.55325843054E+03  0.35000000000E+03 0.  0.
        1    1    1    2  502    0 -0.30807204170E+02 -0.13009409235E+02  0.41897949054E+02  0.53607524586E+02  0.00000000000E+00 0. -1.
<scales pt_clust_1="13000.00000" pt_clust_2="13000.00000" pt_clust_3="33.44142"></scales>
<clustering>
<clus scale="   33.441">  1  5  2 -1</clus>
<clus scale="  511.285">  3  4 -1 -1</clus>
<clus scale="  394.214">  1  3  2 -1</clus>
</clustering>
</event>
<event>
 6   2  0.3464723E-02  0.3543086E+03  0.7816531E-02  0.1060860E+00
        2   -1    0    0  504    0  0.00000000000E+00  0.00000000000E+00  0.11682578275E+04  0.11682578275E+04  0.00000000000E+00 0. -1.
       21   -1    0    0  501  503  0.00000000000E+00  0.00000000000E+00 -0.27669859841E+03  0.27669859841E+03  0.00000000000E+00 0. -1.
  1000006    1    1    2  501    0 -0.13605035851E+02 -0.95813807317E+02  0.57085577477E+02  0.36759236367E+03  0.35000000000E+03 0.  0.
 -1000006    1    1    2    0  502  0.69893399217E+02 -0.45453984329E+02  0.26116362028E+03  0.44458698643E+03  0.35000000000E+03 0.  0.
       21    1    1    2  504  503 -0.13229841741E+03  0.50285164334E+02  0.23538723449E+03  0.27466091670E+03  0.00000000000E+00 0.  1.
        2    1    1    2  502    0  0.76010054047E+02  0.90982627313E+02  0.33792279688E+03  0.35811615915E+03  0.00000000000E+00 0. -1.
<scales pt_clust_1="13000.00000" pt_clust_2="13000.00000" pt_clust_3="134.09686" pt_clust_4="118.55533"></scales>
<clustering>
<clus scale="  118.555">  1  6  2 -1</clus>
<clus scale="  134.097">  1  5  2 -1</clus>
<clus scale="  354.309">  1  4  2 -1</clus>
<clus scale="  354.309">  2  3  1 -1</clus>
</clustering>
</event>
<event>
 6   2  0.3464723E-02  0.3550759E+03  0.7816531E-02  0.1060551E+00
       -3   -1    0    0    0  501  0.00000000000E+00  0.00000000000E+00  0.71190386941E+03  0.71190386941E+03  0.00000000000E+00 0.  1.
       21   -1    0    0  504  503  0.00000000000E+00  0.00000000000E+00 -0.68473609042E+03  0.68473609042E+03  0.00000000000E+00 0. -1.
  1000006    1    1    2  502    0  0.14472199493E+03  0.51783966111E+02  0.30131609735E+02  0.38345006046E+03  0.35000000000E+03 0.  0.
 -1000006    1    1    2    0  503  0.78194949073E+02 -0.73995720499E+02 -0.29422791175E+03  0.46974448455E+03  0.35000000000E+03 0.  0.
       21    1    1    2  504  501 -0.77600001430E+02  0.29757600559E+02 -0.97633096711E+02  0.12821660028E+03  0.00000000000E+00 0. -1.
       -3    1    1    2    0  502 -0.14531694257E+03 -0.75458461710E+01  0.38889717771E+03  0.41522881454E+03  0.00000000000E+00 0.  1.
<scales pt_clust_1="13000.00000" pt_clust_2="13000.00000" pt_clust_3="83.11002" pt_clust_4="147.26356"></scales>
<clustering>
<clus scale="   83.110">  2  5  1 -1</clus>
<clus scale="  147.264">  1  6  2 -1</clus>
<clus scale="  355.076">  1  3  2 -1</clus>
<clus scale="  355.076">  2  3  1 -1</clus>
</clustering>
</event>
<event>
 6   2  0.3464723E-02  0.3802772E+03  0.7816531E-02  0.1050831E+00
       21   -1    0    0  504  502  0.00000000000E+00  0.00000000000E+00  0.70838939402E+03  0.70838939402E+03  0.00000000000E+00 0.  1.
       21   -1    0    0  501  503  0.00000000000E+00  0.00000000000E+00 -0.35736715470E+03  0.35736715470E+03  0.00000000000E+00 0.  1.
  1000006    1    1    2  501    0  0.15230112889E+03  0.77867280069E+02 -0.98323706871E+02  0.40177916633E+03  0.35000000000E+03 0.  0.
 -1000006    1    1    2    0  505 -0.69628414723E+02 -0.64316376588E+02  0.30024602933E+03  0.47077849416E+03  0.35000000000E+03 0.  0.
       21    1    1    2  504  503 -0.30239643206E+02  0.38508673418E+02  0.58155779448E+02  0.76022684989E+02  0.00000000000E+00 0.  1.
       21    1    1    2  505  502 -0.52433070962E+02 -0.52059576899E+02  0.90944137406E+02  0.11717620324E+03  0.00000000000E+00 0.  1.
<scales pt_clust_1="13000.00000" pt_clust_2="13000.00000" pt_clust_3="48.96278" pt_clust_4="73.39284"></scales>
<clustering>
<clus scale="   48.963">  1  5  2 -1</clus>
<clus scale="   73.393">  1  6  2 -1</clus>
<clus scale="  380.277">  2  3  1 -1</clus>
<clus scale="  380.277">  1  3  2 -1</clus>
</clustering>
</event>
<event>
 5   1  0.3464723E-02  0.3800885E+03  0.7816531E-02  0.1050901E+00
       21   -1    0    0  501  502  0.00000000000E+00  0.00000000000E+00  0.45657171118E+03  0.45657171118E+03  0.00000000000E+00 0.  1.
       21   -1    0    0  502  503  0.00000000000E+00  0.00000000000E+00 -0.38544619556E+03  0.38544619556E+03  0.00000000000E+00 0.  1.
  1000006    1    1    2  501    0  0.12181675033E+03 -0.62384071106E+02  0.16043520248E+03  0.40862029708E+03  0.35000000000E+03 0.  0.
 -1000006    1    1    2    0  504 -0.14618804823E+03  0.87216736115E+02 -0.79372571185E+02  0.39721242372E+03  0.35000000000E+03 0.  0.
       21    1    1    2  504  503  0.24371297900E+02 -0.24832665009E+02 -0.99371156760E+01  0.36185185929E+02  0.00000000000E+00 0. -1.
<scales pt_clust_1="13000.00000" pt_clust_2="13000.00000" pt_clust_3="34.79399"></scales>
<clustering>
<clus scale="   34.794">  2  5  1 -1</clus>
<clus scale="  380.089">  2  4  1 -1</clus>
<clus scale="  380.089">  1  3  2 -1</clus>
</clustering>
</event>
<event>
 4   0  0.3464723E-02  0.3593732E+03  0.7816531E-02  0.1058832E+00
       21   -1    0    0  503  502  0.00000000000E+00  0.00000000000E+00  0.23387374844E+03  0.23387374844E+03  0.00000000000E+00 0.  1.
       21   -1    0    0  501  503  0.00000000000E+00  0.00000000000E+00 -0.63717859517E+03  0.63717859517E+03  0.00000000000E+00 0.  1.
  1000006    1    1    2  501    0  0.67508884446E+02  0.45734519873E+02 -0.36068811572E+03  0.50916108709E+03  0.35000000000E+03 0.  0.
 -1000006    1    1    2    0  502 -0.67508884446E+02 -0.45734519873E+02 -0.42616731010E+02  0.36189125652E+03  0.35000000000E+03 0.  0.
<scales pt_clust_1="13000.00000" pt_clust_2="13000.00000"></scales>
<clustering>
<clus scale="  359.373">  2  3  1 -1</clus>
<clus scale="  359.373">  1  3  2 -1</clus>
</clustering>
</event>
<event>
 5   1  0.3464723E-02  0.4538605E+03  0.7816531E-02  0.1026577E+00
       21   -1    0    0  504  502  0.00000000000E+00  0.00000000000E+00  0.37115473694E+03  0.37115473694E+03  0.00000000000E+00 0.  1.
       21   -1    0    0  502  503  0.00000000000E+00  0.00000000000E+00 -0.10712121242E+04  0.10712121242E+04  0.00000000000E+00 0. -1.
  1000006    1    1    2  501    0  0.24905596270E+03  0.12957886963E+03  0.39910883846E+02  0.45045802764E+03  0.35000000000E+03 0.  0.
 -1000006    1    1    2    0  503 -0.24337872300E+03 -0.15996605629E+03 -0.80220473707E+03  0.92241789995E+03  0.35000000000E+03 0.  0.
       21    1    1    2  504  501 -0.56772396994E+01  0.30387186656E+02  0.62236465916E+02  0.69490933604E+02  0.00000000000E+00 0.  1.
<scales pt_clust_1="13000.00000" pt_clust_2="13000.00000" pt_clust_3="30.91298"></scales>
<clustering>
<clus scale="   30.913">  1  5  2 -1</clus>
<clus scale="  453.861">  2  4  1 -1</clus>
<clus scale="  453.861">  1  3  2 -1</clus>
</clustering>
</event>
<event>
 5   1  0.3464723E-02  0.3871671E+03  0.7816531E-02  0.1048316E+00
        2   -1    0    0  503    0  0.00000000000E+00  0.00000000000E+00  0.27096014450E+04  0.27096014450E+04  0.00000000000E+00 0.  1.
       21   -1    0    0  501  503  0.00000000000E+00  0.00000000000E+00 -0.39920894327E+03  0.39920894327E+03  0.00000000000E+00 0.  1.
  1000006    1    1    2  501    0  0.18140727299E+03  0.55206850160E+02 -0.82950453474E+02  0.40661673936E+03  0.35000000000E+03 0.  0.
 -1000006    1    1    2    0  502 -0.11840571311E+03 -0.60658644784E+02  0.73610132313E+02  0.38159905092E+03  0.35000000000E+03 0.  0.
        2    1    1    2  502    0 -0.63001559881E+02  0.54517946244E+01  0.23197328229E+04  0.23205945980E+04  0.00000000000E+00 0.  1.
<scales pt_clust_1="13000.00000" pt_clust_2="13000.00000" pt_clust_3="63.23700"></scales>
<clustering>
<clus scale="   63.237">  1  5  2 -1</clus>
<clus scale="  387.167">  2  3  1 -1</clus>
<clus scale="  387.167">  2  3  1 -1</clus>
</clustering>
</event>
<event>
 5   1  0.3464723E-02  0.3873979E+03  0.7816531E-02  0.1048233E+00
       21   -1    0    0  504  502  0.00000000000E+00  0.00000000000E+00  0.61079414151E+03  0.61079414151E+03  0.00000000000E+00 0.  1.
       21   -1    0    0  501  503  0.00000000000E+00  0.00000000000E+00 -0.41533526876E+03  0.41533526876E+03  0.00000000000E+00 0.  1.
  1000006    1    1    2  501    0  0.68028839703E+02  0.12132470469E+03 -0.98574991230E+02  0.38931303073E+03  0.35000000000E+03 0.  0.
 -1000006    1    1    2    0  502 -0.17579549451E+03 -0.14322134470E+03  0.12537096990E+03  0.43547019366E+03  0.35000000000E+03 0.  0.
       21    1    1    2  504  503  0.10776665481E+03  0.21896640005E+02  0.16866289408E+03  0.20134618589E+03  0.00000000000E+00 0. -1.
<scales pt_clust_1="13000.00000" pt_clust_2="13000.00000" pt_clust_3="109.96870"></scales>
<clustering>
<clus scale="  109.969">  1  5  2 -1</clus>
<clus scale="  387.398">  2  3  1 -1</clus>
<clus scale="  387.398">  1  3  2 -1</clus>
</clustering>
</event>
<event>
 6   2  0.3464723E-02  0.3628335E+03  0.7816531E-02  0.1057468E+00
       21   -1    0    0  504  502  0.00000000000E+00  0.00000000000E+00  0.44659608383E+03  0.44659608383E+03  0.00000000000E+00 0. -1.
       21   -1    0    0  501  503  0.00000000000E+00  0.00000000000E+00 -0.12374839708E+04  0.12374839708E+04  0.00000000000E+00 0. -1.
  1000006    1    1    2  501    0  0.14560567281E+02 -0.18159373800E+03 -0.75135189283E+03  0.84865656343E+03  0.35000000000E+03 0.  0.
 -1000006    1    1    2    0  505  0.64197096282E+02 -0.66151489068E+02 -0.27315283967E+03  0.45344212475E+03  0.35000000000E+03 0.  0.
       21    1    1    2  504  503 -0.54462199063E+02  0.76041592633E+02  0.31853541212E+01  0.93587399888E+02  0.00000000000E+00 0. -1.
       21    1    1    2  505  502 -0.24295464500E+02  0.17170363443E+03  0.23043149145E+03  0.28839396652E+03  0.00000000000E+00 0. -1.
<scales pt_clust_1="13000.00000" pt_clust_2="13000.00000" pt_clust_3="93.53318" pt_clust_4="229.17348"></scales>
<clustering>
<clus scale="   93.533">  1  5  2 -1</clus>
<clus scale="  229.173">  1  6  2 -1</clus>
<clus scale="  362.833">  1  4  2 -1</clus>
<clus scale="  362.833">  1  3  2 -1</clus>
</clustering>
</event>
<event>
 5   1  0.3464723E-02  0.4011268E+03  0.7816531E-02  0.1043390E+00
       21   -1    0    0  502  503  0.00000000000E+00  0.00000000000E+00  0.42844192496E+03  0.42844192496E+03  0.00000000000E+00 0.  1.
        1   -1    0    0  501    0  0.00000000000E+00  0.00000000000E+00 -0.14768739535E+04  0.14768739535E+04  0.00000000000E+00 0. -1.
  1000006    1    1    2  501    0  0.17682585884E+03 -0.22333942961E+03 -0.78140910406E+03  0.90235695436E+03  0.35000000000E+03 0.  0.
 -1000006    1    1    2    0  503 -0.16408037683E+03  0.89453677418E+02  0.24984613933E+03  0.46887890100E+03  0.35000000000E+03 0.  0.
        1    1    1    2  502    0 -0.12745482010E+02  0.13388575219E+03 -0.51686906376E+03  0.53408002305E+03  0.00000000000E+00 0. -1.
<scales pt_clust_1="13000.00000" pt_clust_2="13000.00000" pt_clust_3="134.49105"></scales>
<clustering>
<clus scale="  134.491">  2  5  1 -1</clus>
<clus scale="  401.127">  2  3  1 -1</clus>
<clus scale="  401.127">  1  3  2 -1</clus>
</clustering>
</event>
<event>
 5   1  0.3464723E-02  0.4502300E+03  0.7816531E-02  0.1027653E+00
       21   -1    0    0  501  503  0.00000000000E+00  0.00000000000E+00  0.34264671728E+03  0.34264671728E+03  0.00000000000E+00 0. -1.
        2   -1    0    0  503    0  0.00000000000E+00  0.00000000000E+00 -0.15063507210E+04  0.15063507210E+04  0.00000000000E+00 0.  1.
  1000006    1    1    2  501    0 -0.20368518529E+03  0.26687680108E+03 -0.81582634901E+02  0.49179935744E+03  0.35000000000E+03 0.  0.
 -1000006    1    1    2    0  502 -0.14079876440E+03 -0.23323867143E+03 -0.78224217170E+03  0.89923711283E+03  0.35000000000E+03 0.  0.
        2    1    1    2  502    0  0.34448394970E+03 -0.33638129649E+02 -0.29987919714E+03  0.45796096804E+03  0.00000000000E+00 0.  1.
<scales pt_clust_1="13000.00000" pt_clust_2="13000.00000" pt_clust_3="346.12240"></scales>
<clustering>
<clus scale="  346.122">  2  5  1 -1</clus>
<clus scale="  450.230">  2  4  1 -1</clus>
<clus scale="  450.230">  1  3  2 -1</clus>
</clustering>
</event>
<event>
 5   1  0.3464723E-02  0.3895088E+03  0.7816531E-02  0.1047474E+00
       21   -1    0    0  501  502  0.00000000000E+00  0.00000000000E+00  0.22484473558E+03  0.22484473558E+03  0.00000000000E+00 0.  1.
       21   -1    0    0  502  503  0.00000000000E+00  0.00000000000E+00 -0.10719354139E+04  0.10719354139E+04  0.00000000000E+00 0.  1.
  1000006    1    1    2  501    0  0.51783188704E+02 -0.17271945644E+03 -0.20181311241E+03  0.44242744219E+03  0.35000000000E+03 0.  0.
 -1000006    1    1    2    0  504 -0.91229452822E+02  0.13668824458E+03 -0.26129364636E+03  0.46666996785E+03  0.35000000000E+03 0.  0.
       21    1    1    2  504  503  0.39446264118E+02  0.36031211862E+02 -0.38398391951E+03  0.38768273939E+03  0.00000000000E+00 0. -1.
<scales pt_clust_1="13000.00000" pt_clust_2="13000.00000" pt_clust_3="53.42524"></scales>
<clustering>
<clus scale="   53.425">  2  5  1 -1</clus>
<clus scale="  389.509">  2  4  1 -1</clus>
<clus scale="  389.509">  1  3  2 -1</clus>
</clustering>
</event>
<event>
 5   1  0.3464723E-02  0.3975599E+03  0.7816531E-02  0.1044628E+00
       21   -1    0    0  501  502  0.00000000000E+00  0.00000000000E+00  0.72012547859E+03  0.72012547859E+03  0.00000000000E+00 0. -1.
       21   -1    0    0  504  503  0.00000000000E+00  0.00000000000E+00 -0.52270748230E+03  0.52270748230E+03  0.00000000000E+00 0. -1.
  1000006    1    1    2  501    0 -0.19649859939E+03  0.20604541670E+02  0.47985896401E+03  0.62593999077E+03  0.35000000000E+03 0.  0.
 -1000006    1    1    2    0  503  0.16264097557E+03  0.22717791614E+02 -0.64290633494E+02  0.39192023493E+03  0.35000000000E+03 0.  0.
       21    1    1    2  504  502  0.33857623826E+02 -0.43322333284E+02 -0.21815033423E+03  0.22497273519E+03  0.00000000000E+00 0. -1.
<scales pt_clust_1="13000.00000" pt_clust_2="13000.00000" pt_clust_3="54.98330"></scales>
<clustering>
<clus scale="   54.983">  2  5  1 -1</clus>
<clus scale="  397.560">  2  4  1 -1</clus>
<clus scale="  397.560">  1  3  2 -1</clus>
</clustering>
</event>
<event>
 6   2  0.3464723E-02  0.3739476E+03  0.7816531E-02  0.1053194E+00
       21   -1    0    0  501  502  0.00000000000E+00  0.00000000000E+00  0.78974723388E+03  0.78974723388E+03  0.00000000000E+00 0. -1.
       21   -1    0    0  504  503  0.00000000000E+00  0.00000000000E+00 -0.49121588717E+03  0.49121588717E+03  0.00000000000E+00 0. -1.
  1000006    1    1    2  501    0 -0.10385235576E+03 -0.81468960224E+02  0.59085218130E+03  0.69930594408E+03  0.35000000000E+03 0.  0.
 -1000006    1    1    2    0  505  0.12259187240E+03  0.53111562233E+02 -0.17181010349E+03  0.41215084239E+03  0.35000000000E+03 0.  0.
       21    1    1    2  504  502 -0.11598430943E+02 -0.28759988838E+02  0.50133685470E+01  0.31413284172E+02  0.00000000000E+00 0. -1.
       21    1    1    2  505  503 -0.71410856980E+01  0.57117386830E+02 -0.12552409964E+03  0.13809305042E+03  0.00000000000E+00 0. -1.
<scales pt_clust_1="13000.00000" pt_clust_2="13000.00000" pt_clust_3="31.01065" pt_clust_4="50.26200"></scales>
<clustering>
<clus scale="   31.011">  2  5  1 -1</clus>
<clus scale="   50.262">  2  6  1 -1</clus>
<clus scale="  373.948">  1  3  2 -1</clus>
<clus scale="  373.948">  1  3  2 -1</clus>
</clustering>
</event>
<event>
 6   2  0.3464723E-02  0.7543958E+03  0.7816531E-02  0.9744731E-01
       21   -1    0    0  505  502  0.00000000000E+00  0.00000000000E+00  0.13040335188E+04  0.13040335188E+04  0.00000000000E+00 0. -1.
       21   -1    0    0  504  503  0.00000000000E+00  0.00000000000E+00 -0.10872592471E+04  0.10872592471E+04  0.00000000000E+00 0. -1.
  1000006    1    1    2  501    0 -0.32832710288E+03  0.11753366288E+03  0.14577453925E+03  0.51513402595E+03  0.35000000000E+03 0.  0.
 -1000006    1    1    2    0  503 -0.53482925442E+02  0.56612119003E+03  0.24617343809E+03  0.71165650895E+03  0.35000000000E+03 0.  0.
       21    1    1    2  504  502  0.48794838478E+03 -0.56836316022E+03 -0.43119665214E+03  0.86432682529E+03  0.00000000000E+00 0. -1.
       21    1    1    2  505  501 -0.10613835646E+03 -0.11529169269E+03  0.25602294645E+03  0.30017540576E+03  0.00000000000E+00 0. -1.
<scales pt_clust_1="13000.00000" pt_clust_2="13000.00000" pt_clust_3="668.29110" pt_clust_4="156.70841"></scales>
<clustering>
<clus scale="  156.708">  1  6  2 -1</clus>
<clus scale="  510.275">  1  3  2 -1</clus>
<clus scale="  668.291">  2  5  1 -1</clus>
<clus scale="  754.396">  1  3  2 -1</clus>
</clustering>
</event>
<event>
 5   1  0.3464723E-02  0.4059973E+03  0.7816531E-02  0.1041723E+00
       21   -1    0    0  501  502  0.00000000000E+00  0.00000000000E+00  0.49342859814E+03  0.49342859814E+03  0.00000000000E+00 0. -1.
       21   -1    0    0  504  503  0.00000000000E+00  0.00000000000E+00 -0.38845719945E+03  0.38845719945E+03  0.00000000000E+00 0. -1.
  1000006    1    1    2  501    0  0.51702610264E+02  0.17967042539E+03  0.12475181515E+03  0.41595388813E+03  0.35000000000E+03 0.  0.
 -1000006    1    1    2    0  503 -0.43188343039E+02 -0.21427861003E+03 -0.54429664412E+02  0.41622487199E+03  0.35000000000E+03 0.  0.
       21    1    1    2  504  502 -0.85142672246E+01  0.34608184641E+02  0.34649247960E+02  0.49707037476E+02  0.00000000000E+00 0. -1.
<scales pt_clust_1="13000.00000" pt_clust_2="13000.00000" pt_clust_3="35.64013"></scales>
<clustering>
<clus scale="   35.640">  1  5  2 -1</clus>
<clus scale="  405.997">  1  3  2 -1</clus>
<clus scale="  405.997">  1  3  2 -1</clus>
</clustering>
</event>
<event>
 4   0  0.3464723E-02  0.4026484E+03  0.7816531E-02  0.1042866E+00
       21   -1    0    0  501  502  0.00000000000E+00  0.00000000000E+00  0.53615554811E+03  0.53615554811E+03  0.00000000000E+00 0.  1.
       21   -1    0    0  502  503  0.00000000000E+00  0.00000000000E+00 -0.49450718596E+03  0.49450718596E+03  0.00000000000E+00 0.  1.
  1000006    1    1    2  501    0 -0.10297249162E+03  0.17035966341E+03  0.34203361254E+03  0.52831121610E+03  0.35000000000E+03 0.  0.
 -1000006    1    1    2    0  503  0.10297249162E+03 -0.17035966341E+03 -0.30038525040E+03  0.50235151797E+03  0.35000000000E+03 0.  0.
<scales pt_clust_1="13000.00000" pt_clust_2="13000.00000"></scales>
<clustering>
<clus scale="  402.648">  1  3  2 -1</clus>
<clus scale="  402.648">  1  3  2 -1</clus>
</clustering>
</event>
<event>
 6   2  0.3464723E-02  0.3619092E+03  0.7816531E-02  0.1057830E+00
        2   -1    0    0  503    0  0.00000000000E+00  0.00000000000E+00  0.30851783316E+04  0.30851783316E+04  0.00000000000E+00 0. -1.
        1   -1    0    0  501    0  0.00000000000E+00  0.00000000000E+00 -0.20095820858E+04  0.20095820858E+04  0.00000000000E+00 0. -1.
  1000006    1    1    2  501    0 -0.62638358929E+02 -0.68587119361E+02  0.21856976298E+03  0.42296630864E+03  0.35000000000E+03 0.  0.
 -1000006    1    1    2    0  502  0.71312621737E+02  0.81460344753E+02  0.35370051622E+03  0.50923995617E+03  0.35000000000E+03 0.  0.
        2    1    1    2  502    0 -0.39561562966E+02 -0.46363080997E+02  0.23322582727E+04  0.23330545007E+04  0.00000000000E+00 0. -1.
        1    1    1    2  503    0  0.30887300159E+02  0.33489855604E+02 -0.18289323062E+04  0.18294996519E+04  0.00000000000E+00 0. -1.
<scales pt_clust_1="13000.00000" pt_clust_2="13000.00000" pt_clust_3="60.84746" pt_clust_4="45.55871"></scales>
<clustering>
<clus scale="   45.559">  2  6  1 -1</clus>
<clus scale="   60.847">  1  5  2 -1</clus>
<clus scale="  361.909">  2  3  1 -1</clus>
<clus scale="  361.909">  1  3  2 -1</clus>
</clustering>
</event>
<event>
 5   1  0.3464723E-02  0.6230840E+03  0.7816531E-02  0.9858638E-01
       -2   -1    0    0    0  501  0.00000000000E+00  0.00000000000E+00  0.51555903983E+03  0.51555903983E+03  0.00000000000E+00 0.  1.
        2   -1    0    0  503    0  0.00000000000E+00  0.00000000000E+00 -0.19501453676E+04  0.19501453676E+04  0.00000000000E+00 0. -1.
  1000006    1    1    2  502    0 -0.18318926429E+03 -0.50870969598E+03  0.66722935788E+02  0.64753054870E+03  0.35000000000E+03 0.  0.
 -1000006    1    1    2    0  501  0.10121555074E+03  0.45945775034E+03 -0.39334991835E+03  0.70609501508E+03  0.35000000000E+03 0.  0.
       21    1    1    2  503  502  0.81973713553E+02  0.49251945642E+02 -0.11079593452E+04  0.11120788436E+04  0.00000000000E+00 0. -1.
<scales pt_clust_1="13000.00000" pt_clust_2="13000.00000" pt_clust_3="95.63181"></scales>
<clustering>
<clus scale="   95.632">  2  5  1 -1</clus>
<clus scale=" 1161.452">  3  4 -1 -1</clus>
<clus scale="  623.084">  2  3  1 -1</clus>
</clustering>
</event>
<event>
 6   2  0.3464723E-02  0.4721488E+03  0.7816531E-02  0.1021315E+00
        2   -1    0    0  501    0  0.00000000000E+00  0.00000000000E+00  0.68503414438E+03  0.68503414438E+03  0.00000000000E+00 0.  1.
       21   -1    0    0  504  503  0.00000000000E+00  0.00000000000E+00 -0.72676783171E+03  0.72676783171E+03  0.00000000000E+00 0.  1.
  1000006    1    1    2  501    0  0.29891758210E+03 -0.11290901221E+03  0.42706473483E+03  0.63795333189E+03  0.35000000000E+03 0.  0.
 -1000006    1    1    2    0  503 -0.25594040926E+03  0.18441251501E+03 -0.26765229060E+03  0.54189594707E+03  0.35000000000E+03 0.  0.
       21    1    1    2  504  502 -0.30259649367E+02  0.10577692050E+02 -0.64891293901E+02  0.72376888390E+02  0.00000000000E+00 0. -1.
        2    1    1    2  502    0 -0.12717523472E+02 -0.82081194849E+02 -0.13625483766E+03  0.15957580875E+03  0.00000000000E+00 0.  1.
<scales pt_clust_1="13000.00000" pt_clust_2="13000.00000" pt_clust_3="32.05517" pt_clust_4="82.05896"></scales>
<clustering>
<clus scale="   32.055">  2  5  1 -1</clus>
<clus scale="   82.059">  2  6  1 -1</clus>
<clus scale="  996.078">  3  4 -1 -1</clus>
<clus scale="  472.149">  2  3  1 -1</clus>
</clustering>
</event>
<event>
 6   2  0.3464723E-02  0.4670916E+03  0.7816531E-02  0.1022744E+00
       21   -1    0    0  505  502  0.00000000000E+00  0.00000000000E+00  0.23480043107E+04  0.23480043107E+04  0.00000000000E+00 0.  1.
       21   -1    0    0  501  503  0.00000000000E+00  0.00000000000E+00 -0.16312390886E+03  0.16312390886E+03  0.00000000000E+00 0. -1.
  1000006    1    1    2  501    0  0.32268646651E+03  0.59655299573E+02  0.58456294877E+03  0.75624014143E+03  0.35000000000E+03 0.  0.
 -1000006    1    1    2    0  504 -0.29085092097E+03 -0.36220112902E+02  0.11729437426E+04  0.12586513330E+04  0.35000000000E+03 0.  0.
       21    1    1    2  504  502 -0.19469450566E+02  0.39293568489E+02  0.43001590326E+03  0.43224613484E+03  0.00000000000E+00 0.  1.
       21    1    1    2  505  503 -0.12366094974E+02 -0.62728755160E+02 -0.26421927240E+01  0.63990610336E+02  0.00000000000E+00 0. -1.
<scales pt_clust_1="13000.00000" pt_clust_2="13000.00000" pt_clust_3="43.85253" pt_clust_4="63.38083"></scales>
<clustering>
<clus scale="   43.853">  1  5  2 -1</clus>
<clus scale="   63.381">  2  6  1 -1</clus>
<clus scale="  467.092">  1  4  2 -1</clus>
<clus scale="  467.092">  1  3  2 -1</clus>
</clustering>
</event>
<event>
 4   0  0.3464723E-02  0.3601361E+03  0.7816531E-02  0.1058530E+00
       21   -1    0    0  501  502  0.00000000000E+00  0.00000000000E+00  0.81532127753E+03  0.81532127753E+03  0.00000000000E+00 0. -1.
       21   -1    0    0  502  503  0.00000000000E+00  0.00000000000E+00 -0.16233676895E+03  0.16233676895E+03  0.00000000000E+00 0. -1.
  1000006    1    1    2  501    0 -0.72726763556E+02  0.43689809745E+02  0.39577322008E+03  0.53510225503E+03  0.35000000000E+03 0.  0.
 -1000006    1    1    2    0  503  0.72726763556E+02 -0.43689809745E+02  0.25721128849E+03  0.44255579145E+03  0.35000000000E+03 0.  0.
<scales pt_clust_1="13000.00000" pt_clust_2="13000.00000"></scales>
<clustering>
<clus scale="  360.136">  1  3  2 -1</clus>
<clus scale="  360.136">  1  3  2 -1</clus>
</clustering>
</event>
<event>
 6   2  0.3464723E-02  0.3748075E+03  0.7816531E-02  0.1052870E+00
       21   -1    0    0  501  503  0.00000000000E+00  0.00000000000E+00  0.11825866661E+04  0.11825866661E+04  0.00000000000E+00 0.  1.
        2   -1    0    0  504    0  0.00000000000E+00  0.00000000000E+00 -0.17192953450E+04  0.17192953450E+04  0.00000000000E+00 0. -1.
  1000006    1    1    2  501    0  0.25874826621E+02 -0.13509188960E+03  0.69303524025E+03  0.78849043717E+03  0.35000000000E+03 0.  0.
 -1000006    1    1    2    0  502  0.48779064733E+02  0.13234974355E+03  0.35278840871E+03  0.51658059690E+03  0.35000000000E+03 0.  0.
       21    1    1    2  504  503 -0.44597975505E+02 -0.13717756009E+02 -0.71425450536E+02  0.85315597831E+02  0.00000000000E+00 0.  1.
        2    1    1    2  502    0 -0.30055915849E+02  0.16459902061E+02 -0.15111068773E+04  0.15114953792E+04  0.00000000000E+00 0. -1.
<scales pt_clust_1="13000.00000" pt_clust_2="13000.00000" pt_clust_3="56.42559" pt_clust_4="34.26786"></scales>
<clustering>
<clus scale="   34.268">  2  6  1 -1</clus>
<clus scale="   56.426">  2  5  1 -1</clus>
<clus scale="  374.807">  1  3  2 -1</clus>
<clus scale="  374.807">  1  3  2 -1</clus>
</clustering>
</event>
<event>
 6   2  0.3464723E-02  0.8507935E+03  0.7816531E-02  0.9489273E-01
        2   -1    0    0  502    0  0.00000000000E+00  0.00000000000E+00  0.42461581073E+04  0.42461581073E+04  0.00000000000E+00 0. -1.
       -2   -1    0    0    0  501  0.00000000000E+00  0.00000000000E+00 -0.42048646892E+03  0.42048646892E+03  0.00000000000E+00 0.  1.
  1000006    1    1    2  502    0  0.56955075890E+03 -0.56282515389E+03  0.11767568781E+04  0.14657479220E+04  0.35000000000E+03 0.  0.
 -1000006    1    1    2    0  503 -0.60712322627E+03  0.46766839893E+03  0.27810635456E+04  0.29058779720E+04  0.35000000000E+03 0.  0.
       21    1    1    2  503  504  0.71790965844E+01  0.96100106900E+02  0.51227960241E+02  0.10913786641E+03  0.00000000000E+00 0. -1.
       21    1    1    2  504  501  0.30393370790E+02 -0.94335194548E+00 -0.18337674552E+03  0.18588081585E+03  0.00000000000E+00 0.  1.
<scales pt_clust_1="13000.00000" pt_clust_2="13000.00000" pt_clust_3="96.60238" pt_clust_4="30.40801"></scales>
<clustering>
<clus scale="   30.408">  2  6  1 -1</clus>
<clus scale="   96.602">  2  5  1 -1</clus>
<clus scale=" 1751.800">  3  4 -1 -1</clus>
<clus scale="  850.793">  1  3  2 -1</clus>
</clustering>
</event>
<event>
 4   0  0.3464723E-02  0.3809813E+03  0.7816531E-02  0.1050572E+00
       21   -1    0    0  501  502  0.00000000000E+00  0.00000000000E+00  0.15556282167E+04  0.15556282167E+04  0.00000000000E+00 0. -1.
       21   -1    0    0  502  503  0.00000000000E+00  0.00000000000E+00 -0.12809128206E+03  0.12809128206E+03  0.00000000000E+00 0. -1.
  1000006    1    1    2  501    0 -0.80359533393E+02 -0.12723651086E+03  0.11524894505E+04  0.12138281253E+04  0.35000000000E+03 0.  0.
 -1000006    1    1    2    0  503  0.80359533393E+02  0.12723651086E+03  0.27504748415E+03  0.46989137345E+03  0.35000000000E+03 0.  0.
<scales pt_clust_1="13000.00000" pt_clust_2="13000.00000"></scales>
<clustering>
<clus scale="  380.981">  1  3  2 -1</clus>
<clus scale="  380.981">  1  3  2 -1</clus>
</clustering>
</event>
<event>
 5   1  0.3464723E-02  0.3568101E+03  0.7816531E-02  0.1059854E+00
       21   -1    0    0  504  502  0.00000000000E+00  0.00000000000E+00  0.21096276715E+03  0.21096276715E+03  0.00000000000E+00 0.  1.
       21   -1    0    0  501  503  0.00000000000E+00  0.00000000000E+00 -0.10842753352E+04  0.10842753352E+04  0.00000000000E+00 0.  1.
  1000006    1    1    2  501    0 -0.43116529783E+02  0.19587913035E+02 -0.32622331640E+03  0.48079556325E+03  0.35000000000E+03 0.  0.
 -1000006    1    1    2    0  502  0.47583463343E+01 -0.96192250841E+02 -0.12527694895E+03  0.38401810494E+03  0.35000000000E+03 0.  0.
       21    1    1    2  504  503  0.38358183449E+02  0.76604337805E+02 -0.42181230267E+03  0.43042443412E+03  0.00000000000E+00 0.  1.
<scales pt_clust_1="13000.00000" pt_clust_2="13000.00000" pt_clust_3="85.67132"></scales>
<clustering>
<clus scale="   85.671">  2  5  1 -1</clus>
<clus scale="  356.810">  2  3  1 -1</clus>
<clus scale="  356.810">  1  3  2 -1</clus>
</clustering>
</event>
<event>
 6   2  0.3464723E-02  0.3697989E+03  0.7816531E-02  0.1054770E+00
       21   -1    0    0  504  502  0.00000000000E+00  0.00000000000E+00  0.25256744429E+03  0.25256744429E+03  0.00000000000E+00 0. -1.
       21   -1    0    0  505  503  0.00000000000E+00  0.00000000000E+00 -0.75136022743E+03  0.75136022743E+03  0.00000000000E+00 0. -1.
  1000006    1    1    2  501    0  0.12075156757E+03 -0.94223254785E+02 -0.28433324151E+03  0.47623980833E+03  0.35000000000E+03 0.  0.
 -1000006    1    1    2    0  502 -0.61566231309E+02  0.77147821088E+02 -0.11484261261E+03  0.38135418289E+03  0.35000000000E+03 0.  0.
       21    1    1    2  504  503 -0.33109288343E+02  0.50723418734E+02 -0.38221136437E+02  0.71623637531E+02  0.00000000000E+00 0. -1.
       21    1    1    2  505  501 -0.26076047923E+02 -0.33647985038E+02 -0.61395792583E+02  0.74710042961E+02  0.00000000000E+00 0.  1.
<scales pt_clust_1="13000.00000" pt_clust_2="13000.00000" pt_clust_3="59.54175" pt_clust_4="42.56932"></scales>
<clustering>
<clus scale="   42.569">  2  6  1 -1</clus>
<clus scale="   59.542">  2  5  1 -1</clus>
<clus scale="  369.799">  1  4  2 -1</clus>
<clus scale="  369.799">  1  3  2 -1</clus>
</clustering>
</event>
<event>
 4   0  0.3464723E-02  0.5662071E+03  0.7816531E-02  0.9978107E-01
        1   -1    0    0  502    0  0.00000000000E+00  0.00000000000E+00  0.25096509278E+04  0.25096509278E+04  0.00000000000E+00 0.  1.
       -1   -1    0    0    0  501  0.00000000000E+00  0.00000000000E+00 -0.18852042773E+03  0.18852042773E+03  0.00000000000E+00 0. -1.
  1000006    1    1    2  502    0  0.31045381792E+03 -0.31891839770E+03  0.39456091666E+03  0.69012233293E+03  0.35000000000E+03 0.  0.
 -1000006    1    1    2    0  501 -0.31045381792E+03  0.31891839770E+03  0.19265695834E+04  0.20080490226E+04  0.35000000000E+03 0.  0.
<scales pt_clust_1="13000.00000" pt_clust_2="13000.00000"></scales>
<clustering>
<clus scale=" 1234.902">  3  4 -1 -1</clus>
<clus scale="  566.207">  1  3  2 -1</clus>
</clustering>
</event>
<event>
 6   2  0.3464723E-02  0.4696024E+03  0.7816531E-02  0.1022032E+00
       21   -1    0    0  505  502  0.00000000000E+00  0.00000000000E+00  0.93303707287E+03  0.93303707287E+03  0.00000000000E+00 0. -1.
       21   -1    0    0  501  503  0.00000000000E+00  0.00000000000E+00 -0.13522539057E+04  0.13522539057E+04  0.00000000000E+00 0.  1.
  1000006    1    1    2  501    0  0.22360398860E+03 -0.22091711271E+03 -0.63964579108E+03  0.79400872316E+03  0.35000000000E+03 0.  0.
 -1000006    1    1    2    0  504 -0.32766192904E+03  0.81513443675E+02 -0.50125867771E+03  0.69840320963E+03  0.35000000000E+03 0.  0.
       21    1    1    2  504  502  0.78814456152E+02  0.12651707206E+02  0.62849160235E+03  0.63354043156E+03  0.00000000000E+00 0. -1.
       21    1    1    2  505  503  0.25243484285E+02  0.12675196183E+03  0.93196033562E+02  0.15933861427E+03  0.00000000000E+00 0. -1.
<scales pt_clust_1="13000.00000" pt_clust_2="13000.00000" pt_clust_3="79.82346" pt_clust_4="144.29632"></scales>
<clustering>
<clus scale="   79.823">  1  5  2 -1</clus>
<clus scale="  144.296">  1  6  2 -1</clus>
<clus scale="  469.602">  1  4  2 -1</clus>
<clus scale="  469.602">  1  3  2 -1</clus>
</clustering>
</event>
<event>
 4   0  0.3464723E-02  0.4041236E+03  0.7816531E-02  0.1042361E+00
       -2   -1    0    0    0  501  0.00000000000E+00  0.00000000000E+00  0.78493532871E+02  0.78493532871E+02  0.00000000000E+00 0.  1.
        2   -1    0    0  502    0  0.00000000000E+00  0.00000000000E+00 -0.24426494206E+04  0.24426494206E+04  0.00000000000E+00 0. -1.
  1000006    1    1    2  502    0  0.19394993032E+03 -0.56562669059E+02 -0.69678551553E+03  0.80549734057E+03  0.35000000000E+03 0.  0.
 -1000006    1    1    2    0  501 -0.19394993032E+03  0.56562669059E+02 -0.16673703722E+04  0.17156456129E+04  0.35000000000E+03 0.  0.
<scales pt_clust_1="13000.00000" pt_clust_2="13000.00000"></scales>
<clustering>
<clus scale="  632.004">  3  4 -1 -1</clus>
<clus scale="  404.124">  2  3  1 -1</clus>
</clustering>
</event>
<event>
 6   2  0.3464723E-02  0.3549781E+03  0.7816531E-02  0.1060590E+00
       21   -1    0    0  504  502  0.00000000000E+00  0.00000000000E+00  0.50466170585E+03  0.50466170585E+03  0.00000000000E+00 0. -1.
       21   -1    0    0  501  503  0.00000000000E+00  0.00000000000E+00 -0.57125304041E+03  0.57125304041E+03  0.00000000000E+00 0. -1.
  1000006    1    1    2  501    0 -0.86440617969E+02  0.25752611479E+02 -0.27622813420E+03  0.45490346180E+03  0.35000000000E+03 0.  0.
 -1000006    1    1    2    0  505  0.51479070943E+02  0.42079748354E+01  0.76756055343E+02  0.36202112346E+03  0.35000000000E+03 0.  0.
       21    1    1    2  504  503  0.53515322527E+02  0.19930494484E+02 -0.45386561073E+02  0.72945556970E+02  0.00000000000E+00 0. -1.
       21    1    1    2  505  502 -0.18553775501E+02 -0.49891080799E+02  0.17826730537E+03  0.18604460404E+03  0.00000000000E+00 0.  1.
<scales pt_clust_1="13000.00000" pt_clust_2="13000.00000" pt_clust_3="55.64593" pt_clust_4="53.22934"></scales>
<clustering>
<clus scale="   53.229">  1  6  2 -1</clus>
<clus scale="   55.646">  2  5  1 -1</clus>
<clus scale="  354.978">  1  4  2 -1</clus>
<clus scale="  354.978">  1  3  2 -1</clus>
</clustering>
</event>
<event>
 5   1  0.3464723E-02  0.3769815E+03  0.7816531E-02  0.1052055E+00
       21   -1    0    0  503  502  0.00000000000E+00  0.00000000000E+00  0.29182813502E+03  0.29182813502E+03  0.00000000000E+00 0. -1.
       21   -1    0    0  504  503  0.00000000000E+00  0.00000000000E+00 -0.60363799020E+03  0.60363799020E+03  0.00000000000E+00 0. -1.
  1000006    1    1    2  501    0 -0.50320379769E+02 -0.13028828530E+03 -0.11244449399E+03  0.39325683991E+03  0.35000000000E+03 0.  0.
 -1000006    1    1    2    0  502  0.80577570991E+02  0.11727000547E+03 -0.90546850977E+02  0.38851477623E+03  0.35000000000E+03 0.  0.
       21    1    1    2  504  501 -0.30257191222E+02  0.13018279839E+02 -0.10881851021E+03  0.11369450908E+03  0.00000000000E+00 0. -1.
<scales pt_clust_1="13000.00000" pt_clust_2="13000.00000" pt_clust_3="32.93893"></scales>
<clustering>
<clus scale="   32.939">  2  5  1 -1</clus>
<clus scale="  376.981">  2  3  1 -1</clus>
<clus scale="  376.981">  1  3  2 -1</clus>
</clustering>
</event>
<event>
 6   2  0.3464723E-02  0.3738828E+03  0.7816531E-02  0.1053218E+00
       21   -1    0    0  505  502  0.00000000000E+00  0.00000000000E+00  0.15002027610E+04  0.15002027610E+04  0.00000000000E+00 0.  1.
       21   -1    0    0  504  503  0.00000000000E+00  0.00000000000E+00 -0.14003077275E+03  0.14003077275E+03  0.00000000000E+00 0.  1.
  1000006    1    1    2  501    0  0.55136158631E+02 -0.10844136744E+03  0.87621684373E+03  0.95134404050E+03  0.35000000000E+03 0.  0.
 -1000006    1    1    2    0  503 -0.11322189491E+03  0.84300715489E+02  0.32622057398E+03  0.49884433545E+03  0.35000000000E+03 0.  0.
       21    1    1    2  504  502  0.27402807940E+02  0.23371163832E+02  0.76043524535E+01  0.36809663923E+02  0.00000000000E+00 0.  1.
       21    1    1    2  505  501  0.30682928335E+02  0.76948811739E+00  0.15013021807E+03  0.15323549387E+03  0.00000000000E+00 0.  1.
<scales pt_clust_1="13000.00000" pt_clust_2="13000.00000" pt_clust_3="36.40968" pt_clust_4="30.69258"></scales>
<clustering>
<clus scale="   30.693">  1  6  2 -1</clus>
<clus scale="   36.410">  2  5  1 -1</clus>
<clus scale="  373.883">  1  3  2 -1</clus>
<clus scale="  373.883">  1  3  2 -1</clus>
</clustering>
</event>
<event>
 4   0  0.3464723E-02  0.3923583E+03  0.7816531E-02  0.1046458E+00
       21   -1    0    0  501  502  0.00000000000E+00  0.00000000000E+00  0.19231544068E+04  0.19231544068E+04  0.00000000000E+00 0.  1.
       21   -1    0    0  502  503  0.00000000000E+00  0.00000000000E+00 -0.89321901347E+02  0.89321901347E+02  0.00000000000E+00 0.  1.
  1000006    1    1    2  501    0  0.15453496669E+02 -0.17665273534E+03  0.12411430841E+04  0.13016839689E+04  0.35000000000E+03 0.  0.
 -1000006    1    1    2    0  503 -0.15453496669E+02  0.17665273534E+03  0.59268942131E+03  0.71079233929E+03  0.35000000000E+03 0.  0.
<scales pt_clust_1="13000.00000" pt_clust_2="13000.00000"></scales>
<clustering>
<clus scale="  392.358">  2  4  1 -1</clus>
<clus scale="  392.358">  1  3  2 -1</clus>
</clustering>
</event>
<event>
 6   2  0.3464723E-02  0.4294138E+03  0.7816531E-02  0.1034045E+00
       21   -1    0    0  501  502  0.00000000000E+00  0.00000000000E+00  0.23478536915E+03  0.23478536915E+03  0.00000000000E+00 0.  1.
       21   -1    0    0  504  503  0.00000000000E+00  0.00000000000E+00 -0.17503300066E+04  0.17503300066E+04  0.00000000000E+00 0.  1.
  1000006    1    1    2  501    0  0.63791775199E+02  0.22008851691E+03 -0.25341597050E+03  0.48910939468E+03  0.35000000000E+03 0.  0.
 -1000006    1    1    2    0  505  0.13005938143E+02 -0.28573510685E+03 -0.45383195393E+03  0.64052880350E+03  0.35000000000E+03 0.  0.
       21    1    1    2  504  502 -0.15232617072E+03  0.74261052542E+02 -0.32789031109E+03  0.36909351433E+03  0.00000000000E+00 0.  1.
       21    1    1    2  505  503  0.75528457382E+02 -0.86144626102E+01 -0.48040640198E+03  0.48638366327E+03  0.00000000000E+00 0.  1.
<scales pt_clust_1="13000.00000" pt_clust_2="13000.00000" pt_clust_3="149.91330" pt_clust_4="76.01813"></scales>
<clustering>
<clus scale="   76.018">  2  6  1 -1</clus>
<clus scale="  149.913">  2  5  1 -1</clus>
<clus scale="  429.414">  2  4  1 -1</clus>
<clus scale="  429.414">  1  3  2 -1</clus>
</clustering>
</event>
<event>
 4   0  0.3464723E-02  0.3921553E+03  0.7816531E-02  0.1046530E+00
       21   -1    0    0  503  502  0.00000000000E+00  0.00000000000E+00  0.45031207726E+03  0.45031207726E+03  0.00000000000E+00 0. -1.
       21   -1    0    0  501  503  0.00000000000E+00  0.00000000000E+00 -0.39706595026E+03  0.39706595026E+03  0.00000000000E+00 0. -1.
  1000006    1    1    2  501    0 -0.92159312680E+02  0.15097161148E+03 -0.13186036957E+03  0.41373049616E+03  0.35000000000E+03 0.  0.
 -1000006    1    1    2    0  502  0.92159312680E+02 -0.15097161148E+03  0.18510649657E+03  0.43364753136E+03  0.35000000000E+03 0.  0.
<scales pt_clust_1="13000.00000" pt_clust_2="13000.00000"></scales>
<clustering>
<clus scale="  392.155">  2  3  1 -1</clus>
<clus scale="  392.155">  1  3  2 -1</clus>
</clustering>
</event>
<event>
 6   2  0.3464723E-02  0.3889244E+03  0.7816531E-02  0.1047684E+00
       21   -1    0    0  505  502  0.00000000000E+00  0.00000000000E+00  0.17735619964E+04  0.17735619964E+04  0.00000000000E+00 0.  1.
       21   -1    0    0  501  503  0.00000000000E+00  0.00000000000E+00 -0.19276609113E+03  0.19276609113E+03  0.00000000000E+00 0.  1.
  1000006    1    1    2  501    0 -0.11568527059E+02  0.15423053597E+03  0.25166632465E+03  0.45799217025E+03  0.35000000000E+03 0.  0.
 -1000006    1    1    2    0  504 -0.75519633338E+02 -0.18819146656E+03  0.65213230461E+03  0.76739545595E+03  0.35000000000E+03 0.  0.
       21    1    1    2  504  502 -0.14267787318E+02  0.48373080120E+02  0.62330012347E+03  0.62533716390E+03  0.00000000000E+00 0.  1.
       21    1    1    2  505  503  0.10135594772E+03 -0.14412149535E+02  0.53697152571E+02  0.11560329747E+03  0.00000000000E+00 0.  1.
<scales pt_clust_1="13000.00000" pt_clust_2="13000.00000" pt_clust_3="50.43337" pt_clust_4="100.89004"></scales>
<clustering>
<clus scale="   50.433">  1  5  2 -1</clus>
<clus scale="  100.890">  2  6  1 -1</clus>
<clus scale="  388.924">  2  3  1 -1</clus>
<clus scale="  388.924">  1  3  2 -1</clus>
</clustering>
</event>
<event>
 5   1  0.3464723E-02  0.3655624E+03  0.7816531E-02  0.1056403E+00
       21   -1    0    0  504  502  0.00000000000E+00  0.00000000000E+00  0.21539166289E+03  0.21539166289E+03  0.00000000000E+00 0. -1.
       21   -1    0    0  501  503  0.00000000000E+00  0.00000000000E+00 -0.14562728489E+04  0.14562728489E+04  0.00000000000E+00 0. -1.
  1000006    1    1    2  501    0  0.41447184448E+02 -0.95392839739E+02 -0.11818093663E+04  0.12369280663E+04  0.35000000000E+03 0.  0.
 -1000006    1    1    2    0  502  0.83719922652E+01  0.12603680224E+03 -0.47531101110E+02  0.37511940945E+03  0.35000000000E+03 0.  0.
       21    1    1    2  504  503 -0.49819176714E+02 -0.30643962502E+02 -0.11540718684E+02  0.59617036105E+02  0.00000000000E+00 0. -1.
<scales pt_clust_1="13000.00000" pt_clust_2="13000.00000" pt_clust_3="58.48934"></scales>
<clustering>
<clus scale="   58.489">  1  5  2 -1</clus>
<clus scale="  365.562">  2  3  1 -1</clus>
<clus scale="  365.562">  1  3  2 -1</clus>
</clustering>
</event>
<event>
 5   1  0.3464723E-02  0.4178552E+03  0.7816531E-02  0.1037767E+00
       21   -1    0    0  504  502  0.00000000000E+00  0.00000000000E+00  0.54385140224E+02  0.54385140224E+02  0.00000000000E+00 0.  1.
       21   -1    0    0  502  503  0.00000000000E+00  0.00000000000E+00 -0.38255451482E+04  0.38255451482E+04  0.00000000000E+00 0.  1.
  1000006    1    1    2  501    0  0.19358013535E+02 -0.21448370132E+03 -0.13736440026E+04  0.14337976973E+04  0.35000000000E+03 0.  0.
 -1000006    1    1    2    0  503  0.18580037319E+01  0.23671294781E+03 -0.23605213711E+04  0.23980403698E+04  0.35000000000E+03 0.  0.
       21    1    1    2  504  501 -0.21216017267E+02 -0.22229246497E+02 -0.36994634295E+02  0.48092221358E+02  0.00000000000E+00 0. -1.
<scales pt_clust_1="13000.00000" pt_clust_2="13000.00000" pt_clust_3="30.72879"></scales>
<clustering>
<clus scale="   30.729">  1  5  2 -1</clus>
<clus scale="  417.855">  2  4  1 -1</clus>
<clus scale="  417.855">  1  3  2 -1</clus>
</clustering>
</event>
<event>
 5   1  0.3464723E-02  0.3763159E+03  0.7816531E-02  0.1052304E+00
        2   -1    0    0  501    0  0.00000000000E+00  0.00000000000E+00  0.10297096881E+04  0.10297096881E+04  0.00000000000E+00 0.  1.
       21   -1    0    0  502  503  0.00000000000E+00  0.00000000000E+00 -0.30068104199E+03  0.30068104199E+03  0.00000000000E+00 0.  1.
  1000006    1    1    2  501    0 -0.21076463500E+02 -0.67605698486E+02  0.65558658683E+03  0.74653099106E+03  0.35000000000E+03 0.  0.
 -1000006    1    1    2    0  503  0.16646763401E+03  0.28815268645E+01 -0.38198224403E+02  0.38945972926E+03  0.35000000000E+03 0.  0.
        2    1    1    2  502    0 -0.14539117051E+03  0.64724171622E+02  0.11164028367E+03  0.19440000976E+03  0.00000000000E+00 0.  1.
<scales pt_clust_1="13000.00000" pt_clust_2="13000.00000" pt_clust_3="159.14714"></scales>
<clustering>
<clus scale="  159.147">  1  5  2 -1</clus>
<clus scale="  376.316">  2  4  1 -1</clus>
<clus scale="  376.316">  2  3  1 -1</clus>
</clustering>
</event>
<event>
 6   2  0.3464723E-02  0.4658235E+03  0.7816531E-02  0.1023106E+00
       21   -1    0    0  504  503  0.00000000000E+00  0.00000000000E+00  0.12073023867E+04  0.12073023867E+04  0.00000000000E+00 0.  1.
        1   -1    0    0  501    0  0.00000000000E+00  0.00000000000E+00 -0.84411381888E+03  0.84411381888E+03  0.00000000000E+00 0.  1.
  1000006    1    1    2  501    0  0.29517857176E+03 -0.26832547920E+03  0.96737226395E+02  0.53943214864E+03  0.35000000000E+03 0.  0.
 -1000006    1    1    2    0  503 -0.78538744207E+02  0.12422415823E+03  0.46569826201E+03  0.60081182334E+03  0.35000000000E+03 0.  0.
       21    1    1    2  504  502 -0.29045848867E+03  0.10297473081E+03  0.28491101254E+03  0.41969538226E+03  0.00000000000E+00 0.  1.
        1    1    1    2  502    0  0.73818661111E+02  0.41126590164E+02 -0.48415793314E+03  0.49147685131E+03  0.00000000000E+00 0.  1.
<scales pt_clust_1="13000.00000" pt_clust_2="13000.00000" pt_clust_3="297.85297" pt_clust_4="84.50202"></scales>
<clustering>
<clus scale="   84.502">  2  6  1 -1</clus>
<clus scale="  297.853">  1  5  2 -1</clus>
<clus scale="  465.823">  2  3  1 -1</clus>
<clus scale="  465.823">  1  3  2 -1</clus>
</clustering>
</event>
<event>
 5   1  0.3464723E-02  0.4013039E+03  0.7816531E-02  0.1043329E+00
       -2   -1    0    0    0  501  0.00000000000E+00  0.00000000000E+00  0.10504827276E+04  0.10504827276E+04  0.00000000000E+00 0.  1.
        2   -1    0    0  502    0  0.00000000000E+00  0.00000000000E+00 -0.37256214121E+03  0.37256214121E+03  0.00000000000E+00 0. -1.
  1000006    1    1    2  502    0  0.11364184531E+03  0.15284084411E+03 -0.17193807745E+03  0.43397868048E+03  0.35000000000E+03 0.  0.
 -1000006    1    1    2    0  503 -0.94321317502E+02 -0.21037585454E+03  0.59962085088E+03  0.73157342483E+03  0.35000000000E+03 0.  0.
       21    1    1    2  503  501 -0.19320527813E+02  0.57535010420E+02  0.25023781291E+03  0.25749276345E+03  0.00000000000E+00 0. -1.
<scales pt_clust_1="13000.00000" pt_clust_2="13000.00000" pt_clust_3="60.69234"></scales>
<clustering>
<clus scale="   60.692">  1  5  2 -1</clus>
<clus scale="  896.892">  3  4 -1 -1</clus>
<clus scale="  401.304">  2  3  1 -1</clus>
</clustering>
</event>
<event>
 4   0  0.3464723E-02  0.5391365E+03  0.7816531E-02  0.1004040E+00
        2   -1    0    0  502    0  0.00000000000E+00  0.00000000000E+00  0.76454494759E+03  0.76454494759E+03  0.00000000000E+00 0. -1.
       -2   -1    0    0    0  501  0.00000000000E+00  0.00000000000E+00 -0.38926262291E+03  0.38926262291E+03  0.00000000000E+00 0.  1.
  1000006    1    1    2  502    0  0.37568661030E+03  0.16440103327E+03  0.27574206737E+03  0.60555909424E+03  0.35000000000E+03 0.  0.
 -1000006    1    1    2    0  501 -0.37568661030E+03 -0.16440103327E+03  0.99540257307E+02  0.54824847626E+03  0.35000000000E+03 0.  0.
<scales pt_clust_1="13000.00000" pt_clust_2="13000.00000"></scales>
<clustering>
<clus scale="  907.158">  3  4 -1 -1</clus>
<clus scale="  539.136">  1  3  2 -1</clus>
</clustering>
</event>
<event>
 5   1  0.3464723E-02  0.4081489E+03  0.7816531E-02  0.1040994E+00
       21   -1    0    0  501  502  0.00000000000E+00  0.00000000000E+00  0.17949966156E+03  0.17949966156E+03  0.00000000000E+00 0.  1.
       21   -1    0    0  504  503  0.00000000000E+00  0.00000000000E+00 -0.22963711560E+04  0.22963711560E+04  0.00000000000E+00 0.  1.
  1000006    1    1    2  501    0  0.15491932344E+03  0.15320553856E+03 -0.12264720104E+03  0.43013285127E+03  0.35000000000E+03 0.  0.
 -1000006    1    1    2    0  503 -0.10118821143E+03 -0.12075186774E+03 -0.18323661304E+04  0.18721339972E+04  0.35000000000E+03 0.  0.
       21    1    1    2  504  502 -0.53731112006E+02 -0.32453670819E+02 -0.16185816302E+03  0.17360396909E+03  0.00000000000E+00 0. -1.
<scales pt_clust_1="13000.00000" pt_clust_2="13000.00000" pt_clust_3="62.77160"></scales>
<clustering>
<clus scale="   62.772">  2  5  1 -1</clus>
<clus scale="  408.149">  1  3  2 -1</clus>
<clus scale="  408.149">  1  3  2 -1</clus>
</clustering>
</event>
<event>
 5   1  0.3464723E-02  0.5399246E+03  0.7816531E-02  0.1003853E+00
       21   -1    0    0  501  502  0.00000000000E+00  0.00000000000E+00  0.25272440569E+03  0.25272440569E+03  0.00000000000E+00 0. -1.
       21   -1    0    0  502  503  0.00000000000E+00  0.00000000000E+00 -0.15120614187E+04  0.15120614187E+04  0.00000000000E+00 0.  1.
  1000006    1    1    2  501    0 -0.19981036713E+03 -0.39845141731E+03 -0.34210022321E+03  0.66198208245E+03  0.35000000000E+03 0.  0.
 -1000006    1    1    2    0  504  0.13534865455E+03  0.33430696270E+03 -0.65730848452E+03  0.82742664171E+03  0.35000000000E+03 0.  0.
       21    1    1    2  504  503  0.64461712580E+02  0.64144454609E+02 -0.25992830528E+03  0.27537710023E+03  0.00000000000E+00 0. -1.
<scales pt_clust_1="13000.00000" pt_clust_2="13000.00000" pt_clust_3="90.93857"></scales>
<clustering>
<clus scale="   90.939">  2  5  1 -1</clus>
<clus scale="  539.925">  2  4  1 -1</clus>
<clus scale="  539.925">  1  3  2 -1</clus>
</clustering>
</event>
<event>
 5   1  0.3464723E-02  0.3633887E+03  0.7816531E-02  0.1057250E+00
       21   -1    0    0  504  502  0.00000000000E+00  0.00000000000E+00  0.12950813339E+04  0.12950813339E+04  0.00000000000E+00 0.  1.
       21   -1    0    0  501  503  0.00000000000E+00  0.00000000000E+00 -0.20861162254E+03  0.20861162254E+03  0.00000000000E+00 0.  1.
  1000006    1    1    2  501    0  0.55862841077E+01  0.11995650873E+03  0.11046082967E+03  0.38616365112E+03  0.35000000000E+03 0.  0.
 -1000006    1    1    2    0  502  0.65393089366E+02 -0.48943657335E+02  0.42115135016E+03  0.55366072415E+03  0.35000000000E+03 0.  0.
       21    1    1    2  504  503 -0.70979373473E+02 -0.71012851396E+02  0.55485753151E+03  0.56386858114E+03  0.00000000000E+00 0.  1.
<scales pt_clust_1="13000.00000" pt_clust_2="13000.00000" pt_clust_3="100.40367"></scales>
<clustering>
<clus scale="  100.404">  1  5  2 -1</clus>
<clus scale="  363.389">  2  3  1 -1</clus>
<clus scale="  363.389">  1  3  2 -1</clus>
</clustering>
</event>
<event>
 5   1  0.3464723E-02  0.3739745E+03  0.7816531E-02  0.1053184E+00
       21   -1    0    0  501  502  0.00000000000E+00  0.00000000000E+00  0.52298462555E+03  0.52298462555E+03  0.00000000000E+00 0.  1.
       21   -1    0    0  504  503  0.00000000000E+00  0.00000000000E+00 -0.30598994725E+03  0.30598994725E+03  0.00000000000E+00 0.  1.
  1000006    1    1    2  501    0  0.34610625257E+02  0.14300433751E+03  0.11863930459E+03  0.39777307667E+03  0.35000000000E+03 0.  0.
 -1000006    1    1    2    0  503 -0.60482867720E+02 -0.10254297673E+03  0.10055648004E+03  0.38312510364E+03  0.35000000000E+03 0.  0.
       21    1    1    2  504  502  0.25872242463E+02 -0.40461360775E+02 -0.22011063217E+01  0.48076392490E+02  0.00000000000E+00 0.  1.
<scales pt_clust_1="13000.00000" pt_clust_2="13000.00000" pt_clust_3="48.02598"></scales>
<clustering>
<clus scale="   48.026">  2  5  1 -1</clus>
<clus scale="  373.975">  1  3  2 -1</clus>
<clus scale="  373.975">  1  3  2 -1</clus>
</clustering>
</event>
<event>
 6   2  0.3464723E-02  0.7547591E+03  0.7816531E-02  0.9627913E-01
       21   -1    0    0  502  503  0.00000000000E+00  0.00000000000E+00  0.18052265435E+04  0.18052265435E+04  0.00000000000E+00 0. -1.
        2   -1    0    0  501    0  0.00000000000E+00  0.00000000000E+00 -0.13222904776E+04  0.13222904776E+04  0.00000000000E+00 0.  1.
  1000006    1    1    2  501    0  0.41338749275E+03 -0.51293222240E+03 -0.36148997314E+03  0.82895336698E+03  0.35000000000E+03 0.  0.
 -1000006    1    1    2    0  504 -0.37317693086E+03  0.64522162821E+03  0.16172498430E+03  0.83918230545E+03  0.35000000000E+03 0.  0.
       21    1    1    2  504  503  0.29762374116E+02 -0.13492369888E+03  0.10633786550E+04  0.10723172886E+04  0.00000000000E+00 0. -1.
        2    1    1    2  502    0 -0.69972936011E+02  0.26342930745E+01 -0.38067760026E+03  0.38706406009E+03  0.00000000000E+00 0.  1.
<scales pt_clust_1="13000.00000" pt_clust_2="13000.00000" pt_clust_3="138.08364" pt_clust_4="70.02251"></scales>
<clustering>
<clus scale="   70.023">  2  6  1 -1</clus>
<clus scale="  138.084">  1  5  2 -1</clus>
<clus scale="  754.759">  1  4  2 -1</clus>
<clus scale="  754.759">  1  3  2 -1</clus>
</clustering>
</event>
<event>
 5   1  0.3464723E-02  0.3603057E+03  0.7816531E-02  0.1058463E+00
       21   -1    0    0  503  502  0.00000000000E+00  0.00000000000E+00  0.58674700232E+03  0.58674700232E+03  0.00000000000E+00 0. -1.
       21   -1    0    0  504  503  0.00000000000E+00  0.00000000000E+00 -0.38069029249E+03  0.38069029249E+03  0.00000000000E+00 0. -1.
  1000006    1    1    2  501    0  0.88690435435E+02  0.14003671858E+02  0.14340128748E+03  0.38874930921E+03  0.35000000000E+03 0.  0.
 -1000006    1    1    2    0  502 -0.71139726070E+02 -0.48046567252E+02  0.21632561216E+03  0.42031667077E+03  0.35000000000E+03 0.  0.
       21    1    1    2  504  501 -0.17550709365E+02  0.34042895393E+02 -0.15367018981E+03  0.15837131483E+03  0.00000000000E+00 0.  1.
<scales pt_clust_1="13000.00000" pt_clust_2="13000.00000" pt_clust_3="38.30073"></scales>
<clustering>
<clus scale="   38.301">  2  5  1 -1</clus>
<clus scale="  360.306">  2  3  1 -1</clus>
<clus scale="  360.306">  1  3  2 -1</clus>
</clustering>
</event>
<event>
 5   1  0.3464723E-02  0.3988007E+03  0.7816531E-02  0.1044196E+00
        1   -1    0    0  503    0  0.00000000000E+00  0.00000000000E+00  0.90660602055E+03  0.90660602055E+03  0.00000000000E+00 0.  1.
       21   -1    0    0  501  503  0.00000000000E+00  0.00000000000E+00 -0.62299007005E+03  0.62299007005E+03  0.00000000000E+00 0.  1.
  1000006    1    1    2  501    0 -0.13848808115E+03  0.15741498293E+03 -0.46593484525E+03  0.61931712837E+03  0.35000000000E+03 0.  0.
 -1000006    1    1    2    0  502  0.31735037561E+02 -0.35511697480E+02  0.54249770787E+03  0.64735767263E+03  0.35000000000E+03 0.  0.
        1    1    1    2  502    0  0.10675304358E+03 -0.12190328545E+03  0.20705308789E+03  0.26292128959E+03  0.00000000000E+00 0.  1.
<scales pt_clust_1="13000.00000" pt_clust_2="13000.00000" pt_clust_3="162.03896"></scales>
<clustering>
<clus scale="  162.039">  1  5  2 -1</clus>
<clus scale="  398.801">  1  4  2 -1</clus>
<clus scale="  398.801">  2  3  1 -1</clus>
</clustering>
</event>
<event>
 6   2  0.3464723E-02  0.4416503E+03  0.7816531E-02  0.1030242E+00
       21   -1    0    0  501  503  0.00000000000E+00  0.00000000000E+00  0.21422756913E+03  0.21422756913E+03  0.00000000000E+00 0. -1.
        1   -1    0    0  504    0  0.00000000000E+00  0.00000000000E+00 -0.27489227815E+04  0.27489227815E+04  0.00000000000E+00 0. -1.
  1000006    1    1    2  501    0 -0.33928658225E+03  0.85294829832E+02 -0.56300978177E+03  0.74958028740E+03  0.35000000000E+03 0.  0.
 -1000006    1    1    2    0  502  0.12623244302E+03 -0.21974488224E+03 -0.69309496315E+03  0.81676377912E+03  0.35000000000E+03 0.  0.
       21    1    1    2  504  503  0.23228325569E+03  0.16540693410E+03 -0.28711171110E+03  0.40465800298E+03  0.00000000000E+00 0. -1.
        1    1    1    2  502    0 -0.19229116470E+02 -0.30956881689E+02 -0.99147875638E+03  0.99214828116E+03  0.00000000000E+00 0. -1.
<scales pt_clust_1="13000.00000" pt_clust_2="13000.00000" pt_clust_3="278.55343" pt_clust_4="36.44293"></scales>
<clustering>
<clus scale="   36.443">  2  6  1 -1</clus>
<clus scale="  278.553">  1  5  2 -1</clus>
<clus scale="  441.650">  1  3  2 -1</clus>
<clus scale="  441.650">  1  3  2 -1</clus>
</clustering>
</event>
<event>
 5   1  0.3464723E-02  0.4016239E+03  0.7816531E-02  0.1043656E+00
       21   -1    0    0  504  502  0.00000000000E+00  0.00000000000E+00  0.77675124560E+03  0.77675124560E+03  0.00000000000E+00 0.  1.
       21   -1    0    0  501  503  0.00000000000E+00  0.00000000000E+00 -0.13072950978E+04  0.13072950978E+04  0.00000000000E+00 0.  1.
  1000006    1    1    2  501    0 -0.72396627827E+02  0.20064240928E+03 -0.96912531757E+03  0.10522369169E+04  0.35000000000E+03 0.  0.
 -1000006    1    1    2    0  502  0.44169052692E+02  0.19998832227E+03  0.47963914796E+03  0.62809230732E+03  0.35000000000E+03 0.  0.
       21    1    1    2  504  503  0.28227575135E+02 -0.40063073155E+03 -0.41057682634E+02  0.40371711923E+03  0.00000000000E+00 0.  1.
<scales pt_clust_1="13000.00000" pt_clust_2="13000.00000" pt_clust_3="401.62393"></scales>
<clustering>
<clus scale="  401.624">  1  5  2 -1</clus>
<clus scale="  396.584">  2  3  1 -1</clus>
<clus scale="  401.624">  1  3  2 -1</clus>
</clustering>
</event>
<event>
 6   2  0.3464723E-02  0.3522416E+03  0.7816531E-02  0.1061699E+00
       21   -1    0    0  504  502  0.00000000000E+00  0.00000000000E+00  0.22156519572E+04  0.22156519572E+04  0.00000000000E+00 0.  1.
       21   -1    0    0  501  503  0.00000000000E+00  0.00000000000E+00 -0.66261958650E+03  0.66261958650E+03  0.00000000000E+00 0. -1.
  1000006    1    1    2  501    0 -0.53507230742E+02 -0.11137731932E+02 -0.33858918328E+03  0.49003031319E+03  0.35000000000E+03 0.  0.
 -1000006    1    1    2    0  502  0.14672739119E+02 -0.39193482882E+02 -0.12161700982E+03  0.37288351459E+03  0.35000000000E+03 0.  0.
       21    1    1    2  504  505 -0.75268366300E+01  0.34913800692E+02  0.12772456833E+04  0.12777449520E+04  0.00000000000E+00 0.  1.
       21    1    1    2  505  503  0.46361328253E+02  0.15417414122E+02  0.73599288048E+03  0.73761276394E+03  0.00000000000E+00 0.  1.
<scales pt_clust_1="13000.00000" pt_clust_2="13000.00000" pt_clust_3="35.71592" pt_clust_4="58.91751"></scales>
<clustering>
<clus scale="   35.716">  1  5  2 -1</clus>
<clus scale="   58.918">  1  6  2 -1</clus>
<clus scale="  352.242">  2  3  1 -1</clus>
<clus scale="  352.242">  1  3  2 -1</clus>
</clustering>
</event>
<event>
 4   0  0.3464723E-02  0.4127882E+03  0.7816531E-02  0.1039439E+00
       21   -1    0    0  503  502  0.00000000000E+00  0.00000000000E+00  0.25015257746E+03  0.25015257746E+03  0.00000000000E+00 0.  1.
       21   -1    0    0  501  503  0.00000000000E+00  0.00000000000E+00 -0.85489776416E+03  0.85489776416E+03  0.00000000000E+00 0.  1.
  1000006    1    1    2  501    0  0.16391381142E+03 -0.14500465967E+03 -0.55145399181E+03  0.68883640582E+03  0.35000000000E+03 0.  0.
 -1000006    1    1    2    0  502 -0.16391381142E+03  0.14500465967E+03 -0.53291194878E+02  0.41621393580E+03  0.35000000000E+03 0.  0.
<scales pt_clust_1="13000.00000" pt_clust_2="13000.00000"></scales>
<clustering>
<clus scale="  412.788">  2  3  1 -1</clus>
<clus scale="  412.788">  1  3  2 -1</clus>
</clustering>
</event>
<event>
 4   0  0.3464723E-02  0.4033157E+03  0.7816531E-02  0.1042638E+00
       21   -1    0    0  503  502  0.00000000000E+00  0.00000000000E+00  0.31721008462E+03  0.31721008462E+03  0.00000000000E+00 0.  1.
       21   -1    0    0  501  503  0.00000000000E+00  0.00000000000E+00 -0.60827132325E+03  0.60827132325E+03  0.00000000000E+00 0.  1.
  1000006    1    1    2  501    0 -0.19764969345E+03  0.33137960860E+02 -0.32886269231E+03  0.52039811314E+03  0.35000000000E+03 0.  0.
 -1000006    1    1    2    0  502  0.19764969345E+03 -0.33137960860E+02  0.37801453680E+02  0.40508329473E+03  0.35000000000E+03 0.  0.
<scales pt_clust_1="13000.00000" pt_clust_2="13000.00000"></scales>
<clustering>
<clus scale="  403.316">  2  3  1 -1</clus>
<clus scale="  403.316">  1  3  2 -1</clus>
</clustering>
</event>
<event>
 6   2  0.3464723E-02  0.3753757E+03  0.7816531E-02  0.1052656E+00
       21   -1    0    0  501  502  0.00000000000E+00  0.00000000000E+00  0.95950368257E+03  0.95950368257E+03  0.00000000000E+00 0.  1.
       21   -1    0    0  505  503  0.00000000000E+00  0.00000000000E+00 -0.11859027782E+04  0.11859027782E+04  0.00000000000E+00 0.  1.
  1000006    1    1    2  501    0  0.55948347978E+02 -0.15444015978E+03  0.45699213297E+03  0.59860152872E+03  0.35000000000E+03 0.  0.
 -1000006    1    1    2    0  504 -0.40557942097E+02  0.96163900864E+02  0.35118088208E+03  0.50667588697E+03  0.35000000000E+03 0.  0.
       21    1    1    2  504  503  0.80729014381E+01  0.30505108218E+02 -0.10023055992E+03  0.10508043827E+03  0.00000000000E+00 0.  1.
       21    1    1    2  505  502 -0.23463307319E+02  0.27771150702E+02 -0.93434155077E+03  0.93504860681E+03  0.00000000000E+00 0.  1.
<scales pt_clust_1="13000.00000" pt_clust_2="13000.00000" pt_clust_3="31.55524" pt_clust_4="56.55272"></scales>
<clustering>
<clus scale="   31.555">  2  5  1 -1</clus>
<clus scale="   56.553">  2  6  1 -1</clus>
<clus scale="  375.376">  2  4  1 -1</clus>
<clus scale="  375.376">  1  3  2 -1</clus>
</clustering>
</event>
<event>
 4   0  0.3464723E-02  0.5155305E+03  0.7816531E-02  0.1009803E+00
       21   -1    0    0  501  502  0.00000000000E+00  0.00000000000E+00  0.21145446470E+04  0.21145446470E+04  0.00000000000E+00 0.  1.
       21   -1    0    0  502  503  0.00000000000E+00  0.00000000000E+00 -0.12644861704E+03  0.12644861704E+03  0.00000000000E+00 0. -1.
  1000006    1    1    2  501    0  0.37851238753E+03  0.22114317792E+00  0.10809840840E+04  0.11976219213E+04  0.35000000000E+03 0.  0.
 -1000006    1    1    2    0  503 -0.37851238753E+03 -0.22114317792E+00  0.90711194598E+03  0.10433713428E+04  0.35000000000E+03 0.  0.
<scales pt_clust_1="13000.00000" pt_clust_2="13000.00000"></scales>
<clustering>
<clus scale="  515.530">  1  3  2 -1</clus>
<clus scale="  515.530">  1  3  2 -1</clus>
</clustering>
</event>
<event>
 5   1  0.3464723E-02  0.3858200E+03  0.7816531E-02  0.1048803E+00
       21   -1    0    0  503  502  0.00000000000E+00  0.00000000000E+00  0.11488981373E+04  0.11488981373E+04  0.00000000000E+00 0. -1.
       21   -1    0    0  501  503  0.00000000000E+00  0.00000000000E+00 -0.48769627589E+03  0.48769627589E+03  0.00000000000E+00 0. -1.
  1000006    1    1    2  501    0 -0.15924103201E+03 -0.28044421051E+02 -0.18768564936E+03  0.42880076819E+03  0.35000000000E+03 0.  0.
 -1000006    1    1    2    0  504  0.14713804948E+03 -0.25245867052E+03  0.19445926466E+03  0.49568073549E+03  0.35000000000E+03 0.  0.
       21    1    1    2  504  502  0.12102982530E+02  0.28050309157E+03  0.65442824611E+03  0.71211290950E+03  0.00000000000E+00 0. -1.
<scales pt_clust_1="13000.00000" pt_clust_2="13000.00000" pt_clust_3="280.76408"></scales>
<clustering>
<clus scale="  280.764">  1  5  2 -1</clus>
<clus scale="  385.820">  1  4  2 -1</clus>
<clus scale="  385.820">  1  3  2 -1</clus>
</clustering>
</event>
<event>
 6   2  0.3464723E-02  0.3519785E+03  0.7816531E-02  0.1061806E+00
        1   -1    0    0  501    0  0.00000000000E+00  0.00000000000E+00  0.82808820674E+03  0.82808820674E+03  0.00000000000E+00 0. -1.
        1   -1    0    0  502    0  0.00000000000E+00  0.00000000000E+00 -0.25083313338E+04  0.25083313338E+04  0.00000000000E+00 0.  1.
  1000006    1    1    2  501    0  0.18091799956E+02 -0.44869451082E+02 -0.16506104202E+03  0.38998170272E+03  0.35000000000E+03 0.  0.
 -1000006    1    1    2    0  503 -0.78929492811E+01  0.45903600256E+02 -0.32059652076E+03  0.47691882778E+03  0.35000000000E+03 0.  0.
        1    1    1    2  502    0 -0.23942684117E+01  0.56647589832E+02  0.63574242727E+03  0.63826570939E+03  0.00000000000E+00 0. -1.
        1    1    1    2  503    0 -0.78045822634E+01 -0.57681739006E+02 -0.18303279916E+04  0.18312533007E+04  0.00000000000E+00 0.  1.
<scales pt_clust_1="13000.00000" pt_clust_2="13000.00000" pt_clust_3="56.69817" pt_clust_4="58.07221"></scales>
<clustering>
<clus scale="   56.698">  1  5  2 -1</clus>
<clus scale="   58.072">  2  6  1 -1</clus>
<clus scale="  351.978">  1  3  2 -1</clus>
<clus scale="  351.978">  1  3  2 -1</clus>
</clustering>
</event>
<event>
 4   0  0.3464723E-02  0.4049983E+03  0.7816531E-02  0.1042063E+00
       21   -1    0    0  501  502  0.00000000000E+00  0.00000000000E+00  0.13984592255E+03  0.13984592255E+03  0.00000000000E+00 0.  1.
       21   -1    0    0  502  503  0.00000000000E+00  0.00000000000E+00 -0.14182906521E+04  0.14182906521E+04  0.00000000000E+00 0.  1.
  1000006    1    1    2  501    0 -0.19688543282E+03 -0.52533554554E+02 -0.31515726946E+03  0.51317419314E+03  0.35000000000E+03 0.  0.
 -1000006    1    1    2    0  503  0.19688543282E+03  0.52533554554E+02 -0.96328746009E+03  0.10449623815E+04  0.35000000000E+03 0.  0.
<scales pt_clust_1="13000.00000" pt_clust_2="13000.00000"></scales>
<clustering>
<clus scale="  404.998">  1  3  2 -1</clus>
<clus scale="  404.998">  1  3  2 -1</clus>
</clustering>
</event>
<event>
 5   1  0.3464723E-02  0.4839642E+03  0.7816531E-02  0.1018051E+00
       21   -1    0    0  504  502  0.00000000000E+00  0.00000000000E+00  0.50257228256E+03  0.50257228256E+03  0.00000000000E+00 0. -1.
       21   -1    0    0  502  503  0.00000000000E+00  0.00000000000E+00 -0.10132117840E+04  0.10132117840E+04  0.00000000000E+00 0.  1.
  1000006    1    1    2  501    0 -0.26308992263E+03 -0.16222519364E+03 -0.52005431620E+02  0.46982750639E+03  0.35000000000E+03 0.  0.
 -1000006    1    1    2    0  503  0.28390937344E+03  0.19426223940E+03 -0.67036730254E+03  0.83080362920E+03  0.35000000000E+03 0.  0.
       21    1    1    2  504  501 -0.20819450812E+02 -0.32037045764E+02  0.21173323276E+03  0.21515293093E+03  0.00000000000E+00 0. -1.
<scales pt_clust_1="13000.00000" pt_clust_2="13000.00000" pt_clust_3="38.20761"></scales>
<clustering>
<clus scale="   38.208">  1  5  2 -1</clus>
<clus scale="  483.964">  1  3  2 -1</clus>
<clus scale="  483.964">  1  3  2 -1</clus>
</clustering>
</event>
<event>
 6   2  0.3464723E-02  0.3756466E+03  0.7816531E-02  0.1052555E+00
       21   -1    0    0  501  502  0.00000000000E+00  0.00000000000E+00  0.13008718609E+04  0.13008718609E+04  0.00000000000E+00 0.  1.
       21   -1    0    0  504  503  0.00000000000E+00  0.00000000000E+00 -0.47717325127E+03  0.47717325127E+03  0.00000000000E+00 0.  1.
  1000006    1    1    2  501    0  0.86709141470E+02  0.95469046880E+02  0.10467987838E+04  0.11112697728E+04  0.35000000000E+03 0.  0.
 -1000006    1    1    2    0  503  0.11060645684E+01 -0.22390689617E+03 -0.22003941534E+03  0.47016259510E+03  0.35000000000E+03 0.  0.
       21    1    1    2  504  505 -0.24852862021E+02  0.99336683151E+02 -0.48896683718E+02  0.11347390470E+03  0.00000000000E+00 0.  1.
       21    1    1    2  505  502 -0.62962344017E+02  0.29101166139E+02  0.45835924865E+02  0.83138839558E+02  0.00000000000E+00 0.  1.
<scales pt_clust_1="13000.00000" pt_clust_2="13000.00000" pt_clust_3="103.54440" pt_clust_4="69.36234"></scales>
<clustering>
<clus scale="   69.362">  1  6  2 -1</clus>
<clus scale="  103.544">  2  5  1 -1</clus>
<clus scale="  375.647">  2  4  1 -1</clus>
<clus scale="  375.647">  1  3  2 -1</clus>
</clustering>
</event>
<event>
 5   1  0.3464723E-02  0.4011242E+03  0.7816531E-02  0.1043391E+00
       21   -1    0    0  504  502  0.00000000000E+00  0.00000000000E+00  0.22335862638E+04  0.22335862638E+04  0.00000000000E+00 0. -1.
       21   -1    0    0  501  503  0.00000000000E+00  0.00000000000E+00 -0.56903480674E+03  0.56903480674E+03  0.00000000000E+00 0. -1.
  1000006    1    1    2  501    0 -0.14268368916E+02 -0.19884440138E+03 -0.41831550360E+03  0.58071554385E+03  0.35000000000E+03 0.  0.
 -1000006    1    1    2    0  502  0.93629168156E+02  0.16341225913E+03  0.50973370924E+03  0.64637329919E+03  0.35000000000E+03 0.  0.
       21    1    1    2  504  503 -0.79360799240E+02  0.35432142250E+02  0.15731332514E+04  0.15755322275E+04  0.00000000000E+00 0. -1.
<scales pt_clust_1="13000.00000" pt_clust_2="13000.00000" pt_clust_3="86.91129"></scales>
<clustering>
<clus scale="   86.911">  1  5  2 -1</clus>
<clus scale="  401.124">  1  4  2 -1</clus>
<clus scale="  401.124">  1  3  2 -1</clus>
</clustering>
</event>
<event>
 4   0  0.3464723E-02  0.3729642E+03  0.7816531E-02  0.1053565E+00
       21   -1    0    0  503  502  0.00000000000E+00  0.00000000000E+00  0.18829327987E+04  0.18829327987E+04  0.00000000000E+00 0. -1.
       21   -1    0    0  501  503  0.00000000000E+00  0.00000000000E+00 -0.83478359781E+02  0.83478359781E+02  0.00000000000E+00 0. -1.
  1000006    1    1    2  501    0 -0.51046877275E+02  0.11830678858E+03  0.56625355479E+03  0.67804525529E+03  0.35000000000E+03 0.  0.
 -1000006    1    1    2    0  502  0.51046877275E+02 -0.11830678858E+03  0.12332008842E+04  0.12883659032E+04  0.35000000000E+03 0.  0.
<scales pt_clust_1="13000.00000" pt_clust_2="13000.00000"></scales>
<clustering>
<clus scale="  372.964">  2  3  1 -1</clus>
<clus scale="  372.964">  1  3  2 -1</clus>
</clustering>
</event>
<event>
 6   2  0.3464723E-02  0.6943852E+03  0.7816531E-02  0.9726883E-01
       21   -1    0    0  505  502  0.00000000000E+00  0.00000000000E+00  0.15061428754E+04  0.15061428754E+04  0.00000000000E+00 0. -1.
       21   -1    0    0  504  503  0.00000000000E+00  0.00000000000E+00 -0.86346967535E+03  0.86346967535E+03  0.00000000000E+00 0.  1.
  1000006    1    1    2  501    0  0.79622420104E+03 -0.66689996494E+02  0.68215379783E+03  0.11073636882E+04  0.35000000000E+03 0.  0.
 -1000006    1    1    2    0  502 -0.43172417620E+03  0.15436925897E+03  0.35975518769E+03  0.67980837557E+03  0.35000000000E+03 0.  0.
       21    1    1    2  504  501 -0.72006912100E+02  0.16091428848E+02  0.36536633540E+01  0.73873396622E+02  0.00000000000E+00 0.  1.
       21    1    1    2  505  503 -0.29249311275E+03 -0.10377069133E+03 -0.40288944887E+03  0.50856709036E+03  0.00000000000E+00 0.  1.
<scales pt_clust_1="13000.00000" pt_clust_2="13000.00000" pt_clust_3="73.78299" pt_clust_4="345.40598"></scales>
<clustering>
<clus scale="   73.783">  2  5  1 -1</clus>
<clus scale="  345.406">  2  6  1 -1</clus>
<clus scale="  694.385">  1  4  2 -1</clus>
<clus scale="  694.385">  1  3  2 -1</clus>
</clustering>
</event>
<event>
 4   0  0.3464723E-02  0.3701588E+03  0.7816531E-02  0.1054632E+00
       21   -1    0    0  503  502  0.00000000000E+00  0.00000000000E+00  0.14001416424E+04  0.14001416424E+04  0.00000000000E+00 0. -1.
       21   -1    0    0  501  503  0.00000000000E+00  0.00000000000E+00 -0.10259765720E+03  0.10259765720E+03  0.00000000000E+00 0. -1.
  1000006    1    1    2  501    0  0.77703467745E+02 -0.92085178989E+02  0.48730704092E+03  0.61195233574E+03  0.35000000000E+03 0.  0.
 -1000006    1    1    2    0  502 -0.77703467745E+02  0.92085178989E+02  0.81023694427E+03  0.89078696384E+03  0.35000000000E+03 0.  0.
<scales pt_clust_1="13000.00000" pt_clust_2="13000.00000"></scales>
<clustering>
<clus scale="  370.159">  2  3  1 -1</clus>
<clus scale="  370.159">  1  3  2 -1</clus>
</clustering>
</event>
<event>
 5   1  0.3464723E-02  0.4874890E+03  0.7816531E-02  0.1017097E+00
       21   -1    0    0  503  502  0.00000000000E+00  0.00000000000E+00  0.77402109577E+03  0.77402109577E+03  0.00000000000E+00 0.  1.
       21   -1    0    0  501  503  0.00000000000E+00  0.00000000000E+00 -0.14431636285E+04  0.14431636285E+04  0.00000000000E+00 0. -1.
  1000006    1    1    2  501    0 -0.34786452135E+03  0.31292260153E+02 -0.11210101418E+04  0.12252153561E+04  0.35000000000E+03 0.  0.
 -1000006    1    1    2    0  504  0.30088437470E+03 -0.20062936626E+02 -0.70531274975E+02  0.46734204724E+03  0.35000000000E+03 0.  0.
       21    1    1    2  504  502  0.46980146646E+02 -0.11229323527E+02  0.52239888402E+03  0.52462732097E+03  0.00000000000E+00 0.  1.
<scales pt_clust_1="13000.00000" pt_clust_2="13000.00000" pt_clust_3="48.30354"></scales>
<clustering>
<clus scale="   48.304">  1  5  2 -1</clus>
<clus scale="  487.489">  1  4  2 -1</clus>
<clus scale="  487.489">  1  3  2 -1</clus>
</clustering>
</event>
<event>
 5   1  0.3464723E-02  0.4127305E+03  0.7816531E-02  0.1039459E+00
       21   -1    0    0  501  502  0.00000000000E+00  0.00000000000E+00  0.88456201035E+03  0.88456201035E+03  0.00000000000E+00 0.  1.
       21   -1    0    0  502  503  0.00000000000E+00  0.00000000000E+00 -0.37108667214E+03  0.37108667214E+03  0.00000000000E+00 0.  1.
  1000006    1    1    2  501    0 -0.15199170661E+03  0.10553819979E+03  0.28035790408E+03  0.48511889767E+03  0.35000000000E+03 0.  0.
 -1000006    1    1    2    0  504  0.28864838161E+03  0.38334330285E+02  0.31733537167E+03  0.55496769924E+03  0.35000000000E+03 0.  0.
       21    1    1    2  504  503 -0.13665667500E+03 -0.14387253008E+03 -0.84217937551E+02  0.21556208558E+03  0.00000000000E+00 0.  1.
<scales pt_clust_1="13000.00000" pt_clust_2="13000.00000" pt_clust_3="198.42971"></scales>
<clustering>
<clus scale="  198.430">  2  5  1 -1</clus>
<clus scale="  412.730">  1  3  2 -1</clus>
<clus scale="  412.730">  1  3  2 -1</clus>
</clustering>
</event>
<event>
 4   0  0.3464723E-02  0.3564778E+03  0.7816531E-02  0.1059987E+00
       21   -1    0    0  503  502  0.00000000000E+00  0.00000000000E+00  0.78527206467E+03  0.78527206467E+03  0.00000000000E+00 0. -1.
       21   -1    0    0  501  503  0.00000000000E+00  0.00000000000E+00 -0.18831253051E+03  0.18831253051E+03  0.00000000000E+00 0. -1.
  1000006    1    1    2  501    0  0.63594910511E+02 -0.23066840322E+02  0.11591055614E+03  0.37484883459E+03  0.35000000000E+03 0.  0.
 -1000006    1    1    2    0  502 -0.63594910511E+02  0.23066840322E+02  0.48104897802E+03  0.59873576060E+03  0.35000000000E+03 0.  0.
<scales pt_clust_1="13000.00000" pt_clust_2="13000.00000"></scales>
<clustering>
<clus scale="  356.478">  2  3  1 -1</clus>
<clus scale="  356.478">  1  3  2 -1</clus>
</clustering>
</event>
<event>
 6   2  0.3464723E-02  0.3970844E+03  0.7816531E-02  0.1044794E+00
       21   -1    0    0  504  503  0.00000000000E+00  0.00000000000E+00  0.37221604514E+03  0.37221604514E+03  0.00000000000E+00 0.  1.
       -1   -1    0    0    0  501  0.00000000000E+00  0.00000000000E+00 -0.97008103001E+03  0.97008103001E+03  0.00000000000E+00 0.  1.
  1000006    1    1    2  502    0  0.17548062218E+03 -0.20684291525E+02 -0.94209312380E+02  0.40323279035E+03  0.35000000000E+03 0.  0.
 -1000006    1    1    2    0  503 -0.18189505794E+03  0.64729230069E+02 -0.49766362498E+01  0.39975048748E+03  0.35000000000E+03 0.  0.
       21    1    1    2  504  501 -0.42468541361E+02 -0.52567911088E+01 -0.66057533251E+01  0.43299501557E+02  0.00000000000E+00 0. -1.
       -1    1    1    2    0  502  0.48882977126E+02 -0.38788147436E+02 -0.49207328292E+03  0.49601429576E+03  0.00000000000E+00 0.  1.
<scales pt_clust_1="13000.00000" pt_clust_2="13000.00000" pt_clust_3="42.79265" pt_clust_4="62.23563"></scales>
<clustering>
<clus scale="   42.793">  1  5  2 -1</clus>
<clus scale="   62.236">  2  6  1 -1</clus>
<clus scale="  397.084">  2  3  1 -1</clus>
<clus scale="  397.084">  1  3  2 -1</clus>
</clustering>
</event>
<event>
 5   1  0.3464723E-02  0.3828805E+03  0.7816531E-02  0.1049874E+00
       21   -1    0    0  501  502  0.00000000000E+00  0.00000000000E+00  0.26885343835E+03  0.26885343835E+03  0.00000000000E+00 0.  1.
       21   -1    0    0  502  503  0.00000000000E+00  0.00000000000E+00 -0.22634627946E+04  0.22634627946E+04  0.00000000000E+00 0.  1.
  1000006    1    1    2  501    0  0.11474178590E+03  0.12178869786E+03  0.30498323335E+02  0.38913790883E+03  0.35000000000E+03 0.  0.
 -1000006    1    1    2    0  504 -0.66505280777E+02 -0.96395637290E+02 -0.52316849289E+03  0.64025021922E+03  0.35000000000E+03 0.  0.
       21    1    1    2  504  503 -0.48236505126E+02 -0.25393060572E+02 -0.15019391867E+04  0.15029281049E+04  0.00000000000E+00 0.  1.
<scales pt_clust_1="13000.00000" pt_clust_2="13000.00000" pt_clust_3="54.51209"></scales>
<clustering>
<clus scale="   54.512">  2  5  1 -1</clus>
<clus scale="  382.880">  1  3  2 -1</clus>
<clus scale="  382.880">  1  3  2 -1</clus>
</clustering>
</event>
<event>
 6   2  0.3464723E-02  0.3751567E+03  0.7816531E-02  0.1052739E+00
       21   -1    0    0  501  502  0.00000000000E+00  0.00000000000E+00  0.77311216052E+03  0.77311216052E+03  0.00000000000E+00 0. -1.
       21   -1    0    0  504  503  0.00000000000E+00  0.00000000000E+00 -0.56283626712E+03  0.56283626712E+03  0.00000000000E+00 0. -1.
  1000006    1    1    2  501    0 -0.43393395066E+02  0.91194740035E+02  0.29892692817E+03  0.47122900561E+03  0.35000000000E+03 0.  0.
 -1000006    1    1    2    0  505  0.30828424959E+02 -0.17572312489E+03  0.27185319320E+03  0.47773755040E+03  0.35000000000E+03 0.  0.
       21    1    1    2  504  502 -0.33849486751E+02  0.54701629482E+01 -0.19308331460E+03  0.19610424986E+03  0.00000000000E+00 0. -1.
       21    1    1    2  505  503  0.46414456857E+02  0.79058221906E+02 -0.16742091338E+03  0.19087762177E+03  0.00000000000E+00 0.  1.
<scales pt_clust_1="13000.00000" pt_clust_2="13000.00000" pt_clust_3="34.28863" pt_clust_4="87.03376"></scales>
<clustering>
<clus scale="   34.289">  2  5  1 -1</clus>
<clus scale="   87.034">  2  6  1 -1</clus>
<clus scale="  375.157">  1  3  2 -1</clus>
<clus scale="  375.157">  1  3  2 -1</clus>
</clustering>
</event>
<event>
 5   1  0.3464723E-02  0.3608658E+03  0.7816531E-02  0.1058242E+00
       21   -1    0    0  501  502  0.00000000000E+00  0.00000000000E+00  0.11026285298E+04  0.11026285298E+04  0.00000000000E+00 0.  1.
       21   -1    0    0  504  503  0.00000000000E+00  0.00000000000E+00 -0.39222702483E+03  0.39222702483E+03  0.00000000000E+00 0.  1.
  1000006    1    1    2  501    0 -0.69580462026E+02 -0.64832970373E+02  0.76619743240E+03  0.84770470104E+03  0.35000000000E+03 0.  0.
 -1000006    1    1    2    0  503  0.12725196260E+03 -0.89380934940E+02  0.12475889282E+03  0.40279870265E+03  0.35000000000E+03 0.  0.
       21    1    1    2  504  502 -0.57671500571E+02  0.15421390531E+03 -0.18055482023E+03  0.24435215096E+03  0.00000000000E+00 0.  1.
<scales pt_clust_1="13000.00000" pt_clust_2="13000.00000" pt_clust_3="164.64486"></scales>
<clustering>
<clus scale="  164.645">  2  5  1 -1</clus>
<clus scale="  360.866">  2  4  1 -1</clus>
<clus scale="  360.866">  1  3  2 -1</clus>
</clustering>
</event>
<event>
 6   2  0.3464723E-02  0.5220235E+03  0.7816531E-02  0.1020816E+00
        2   -1    0    0  503    0  0.00000000000E+00  0.00000000000E+00  0.30872316447E+04  0.30872316447E+04  0.00000000000E+00 0. -1.
       21   -1    0    0  504  503  0.00000000000E+00  0.00000000000E+00 -0.46036589670E+03  0.46036589670E+03  0.00000000000E+00 0.  1.
  1000006    1    1    2  501    0 -0.36517633662E+02  0.24692260578E+02  0.28935916070E+03  0.45625866478E+03  0.35000000000E+03 0.  0.
 -1000006    1    1    2    0  502 -0.15700429443E+03 -0.34320522791E+03  0.97585855575E+03  0.11032860453E+04  0.35000000000E+03 0.  0.
       21    1    1    2  504  501 -0.32143534986E+02 -0.27298909242E+01 -0.28928821055E+03  0.29108130807E+03  0.00000000000E+00 0.  1.
        2    1    1    2  502    0  0.22566546308E+03  0.32124285826E+03  0.16509362421E+04  0.16969715232E+04  0.00000000000E+00 0. -1.
<scales pt_clust_1="13000.00000" pt_clust_2="13000.00000" pt_clust_3="32.25925" pt_clust_4="387.30935"></scales>
<clustering>
<clus scale="   32.259">  2  5  1 -1</clus>
<clus scale="  354.653">  2  3  1 -1</clus>
<clus scale="  387.309">  1  6  2 -1</clus>
<clus scale="  522.023">  2  3  1 -1</clus>
</clustering>
</event>
<event>
 6   2  0.3464723E-02  0.7104716E+03  0.7816531E-02  0.9699490E-01
       21   -1    0    0  504  502  0.00000000000E+00  0.00000000000E+00  0.80937452851E+03  0.80937452851E+03  0.00000000000E+00 0. -1.
       21   -1    0    0  501  503  0.00000000000E+00  0.00000000000E+00 -0.14912973109E+04  0.14912973109E+04  0.00000000000E+00 0.  1.
  1000006    1    1    2  501    0  0.62122700021E+03  0.97168531129E+02 -0.87793919229E+03  0.11351836568E+04  0.35000000000E+03 0.  0.
 -1000006    1    1    2    0  505 -0.58331346104E+03 -0.13416564313E+03 -0.21865624954E+03  0.72702515025E+03  0.35000000000E+03 0.  0.
       21    1    1    2  504  503 -0.45991898526E+02 -0.40792540909E+02  0.22627268896E+03  0.23447519249E+03  0.00000000000E+00 0. -1.
       21    1    1    2  505  502  0.80783593644E+01  0.77789652907E+02  0.18839997043E+03  0.20398783995E+03  0.00000000000E+00 0. -1.
<scales pt_clust_1="13000.00000" pt_clust_2="13000.00000" pt_clust_3="61.47590" pt_clust_4="64.40600"></scales>
<clustering>
<clus scale="   61.476">  1  5  2 -1</clus>
<clus scale="   64.406">  1  6  2 -1</clus>
<clus scale="  710.472">  2  3  1 -1</clus>
<clus scale="  710.472">  1  3  2 -1</clus>
</clustering>
</event>
<event>
 6   2  0.3464723E-02  0.3543511E+03  0.7816531E-02  0.1060843E+00
       21   -1    0    0  505  502  0.00000000000E+00  0.00000000000E+00  0.24871523452E+04  0.24871523452E+04  0.00000000000E+00 0. -1.
       21   -1    0    0  504  503  0.00000000000E+00  0.00000000000E+00 -0.11603388046E+03  0.11603388046E+03  0.00000000000E+00 0. -1.
  1000006    1    1    2  501    0 -0.10157552042E+03 -0.40225575318E+02  0.81309571000E+03  0.89194187976E+03  0.35000000000E+03 0.  0.
 -1000006    1    1    2    0  503  0.14558834719E+02  0.22677337989E+02  0.44646933482E+03  0.56794461725E+03  0.35000000000E+03 0.  0.
       21    1    1    2  504  502  0.49297359497E+02  0.13156149693E+03  0.72627026621E+03  0.73973451772E+03  0.00000000000E+00 0. -1.
       21    1    1    2  505  501  0.37719326206E+02 -0.11401325960E+03  0.38528315371E+03  0.40356521092E+03  0.00000000000E+00 0.  1.
<scales pt_clust_1="13000.00000" pt_clust_2="13000.00000" pt_clust_3="110.91838" pt_clust_4="120.09068"></scales>
<clustering>
<clus scale="  120.091">  1  6  2 -1</clus>
<clus scale="  110.918">  1  5  2 -1</clus>
<clus scale="  354.351">  1  3  2 -1</clus>
<clus scale="  354.351">  1  3  2 -1</clus>
</clustering>
</event>
<event>
 6   2  0.3464723E-02  0.5973424E+03  0.7816531E-02  0.9910935E-01
        1   -1    0    0  504    0  0.00000000000E+00  0.00000000000E+00  0.13646698711E+04  0.13646698711E+04  0.00000000000E+00 0.  1.
       21   -1    0    0  502  503  0.00000000000E+00  0.00000000000E+00 -0.73001884978E+03  0.73001884978E+03  0.00000000000E+00 0. -1.
  1000006    1    1    2  501    0  0.50213622570E+03  0.11233900374E+03  0.17901747873E+03  0.64754003630E+03  0.35000000000E+03 0.  0.
 -1000006    1    1    2    0  503 -0.41619173738E+03 -0.23332695726E+03 -0.29988371994E+03  0.66339074212E+03  0.35000000000E+03 0.  0.
       21    1    1    2  504  501  0.36248835245E+02 -0.37797626242E+00  0.13562282821E+03  0.14038401780E+03  0.00000000000E+00 0. -1.
        1    1    1    2  502    0 -0.12219332356E+03  0.12136592978E+03  0.61989443431E+03  0.64337392466E+03  0.00000000000E+00 0.  1.
<scales pt_clust_1="13000.00000" pt_clust_2="13000.00000" pt_clust_3="36.25081" pt_clust_4="159.37551"></scales>
<clustering>
<clus scale="   36.251">  1  5  2 -1</clus>
<clus scale="  159.376">  1  6  2 -1</clus>
<clus scale="  597.342">  2  4  1 -1</clus>
<clus scale="  597.342">  2  3  1 -1</clus>
</clustering>
</event>
<event>
 5   1  0.3464723E-02  0.4543722E+03  0.7816531E-02  0.1026426E+00
        2   -1    0    0  502    0  0.00000000000E+00  0.00000000000E+00  0.12074918937E+04  0.12074918937E+04  0.00000000000E+00 0. -1.
       -2   -1    0    0    0  501  0.00000000000E+00  0.00000000000E+00 -0.41318050212E+03  0.41318050212E+03  0.00000000000E+00 0.  1.
  1000006    1    1    2  502    0 -0.26774838936E+03 -0.88824979744E+02  0.40120872846E+02  0.45131891326E+03  0.35000000000E+03 0.  0.
 -1000006    1    1    2    0  503  0.23684557292E+03  0.17558451335E+03  0.89261566868E+03  0.10030894670E+04  0.35000000000E+03 0.  0.
       21    1    1    2  503  501  0.30902816434E+02 -0.86759533604E+02 -0.13842514996E+03  0.16626401558E+03  0.00000000000E+00 0.  1.
<scales pt_clust_1="13000.00000" pt_clust_2="13000.00000" pt_clust_3="92.09886"></scales>
<clustering>
<clus scale="   92.099">  2  5  1 -1</clus>
<clus scale="  932.376">  3  4 -1 -1</clus>
<clus scale="  454.372">  1  3  2 -1</clus>
</clustering>
</event>
<event>
 5   1  0.3464723E-02  0.3654740E+03  0.7816531E-02  0.1056437E+00
        2   -1    0    0  501    0  0.00000000000E+00  0.00000000000E+00  0.68902239435E+03  0.68902239435E+03  0.00000000000E+00 0.  1.
       21   -1    0    0  502  503  0.00000000000E+00  0.00000000000E+00 -0.88326013521E+03  0.88326013521E+03  0.00000000000E+00 0. -1.
  1000006    1    1    2  501    0  0.72650222004E+02  0.50315577777E+02 -0.30083599585E+03  0.46990638272E+03  0.35000000000E+03 0.  0.
 -1000006    1    1    2    0  503 -0.10293851582E+03 -0.59806671292E+02 -0.42872767897E+03  0.56611005881E+03  0.35000000000E+03 0.  0.
        2    1    1    2  502    0  0.30288293817E+02  0.94910935152E+01  0.53532593396E+03  0.53626608803E+03  0.00000000000E+00 0.  1.
<scales pt_clust_1="13000.00000" pt_clust_2="13000.00000" pt_clust_3="31.74054"></scales>
<clustering>
<clus scale="   31.741">  1  5  2 -1</clus>
<clus scale="  365.474">  1  3  2 -1</clus>
<clus scale="  365.474">  2  3  1 -1</clus>
</clustering>
</event>
<event>
 4   0  0.3464723E-02  0.4190164E+03  0.7816531E-02  0.1037387E+00
       21   -1    0    0  503  502  0.00000000000E+00  0.00000000000E+00  0.65643529873E+03  0.65643529873E+03  0.00000000000E+00 0.  1.
       21   -1    0    0  501  503  0.00000000000E+00  0.00000000000E+00 -0.29022758747E+03  0.29022758747E+03  0.00000000000E+00 0. -1.
  1000006    1    1    2  501    0  0.22785872259E+03 -0.33987586295E+02  0.50551292739E+02  0.42205472001E+03  0.35000000000E+03 0.  0.
 -1000006    1    1    2    0  502 -0.22785872259E+03  0.33987586295E+02  0.31565641851E+03  0.52460816619E+03  0.35000000000E+03 0.  0.
<scales pt_clust_1="13000.00000" pt_clust_2="13000.00000"></scales>
<clustering>
<clus scale="  419.016">  2  3  1 -1</clus>
<clus scale="  419.016">  1  3  2 -1</clus>
</clustering>
</event>
<event>
 5   1  0.3464723E-02  0.4805392E+03  0.7816531E-02  0.1018987E+00
       21   -1    0    0  501  502  0.00000000000E+00  0.00000000000E+00  0.14085198108E+04  0.14085198108E+04  0.00000000000E+00 0.  1.
       21   -1    0    0  502  503  0.00000000000E+00  0.00000000000E+00 -0.29006981038E+03  0.29006981038E+03  0.00000000000E+00 0. -1.
  1000006    1    1    2  501    0  0.25490763878E+03  0.91230993902E+02  0.59317173286E+03  0.74003628507E+03  0.35000000000E+03 0.  0.
 -1000006    1    1    2    0  504 -0.44274086820E+03 -0.94190454691E+01  0.49634692178E+03  0.75164383957E+03  0.35000000000E+03 0.  0.
       21    1    1    2  504  503  0.18783322942E+03 -0.81811948433E+02  0.28931345745E+02  0.20690949652E+03  0.00000000000E+00 0. -1.
<scales pt_clust_1="13000.00000" pt_clust_2="13000.00000" pt_clust_3="204.87683"></scales>
<clustering>
<clus scale="  204.877">  2  5  1 -1</clus>
<clus scale="  480.539">  2  4  1 -1</clus>
<clus scale="  480.539">  1  3  2 -1</clus>
</clustering>
</event>
<event>
 6   2  0.3464723E-02  0.3684794E+03  0.7816531E-02  0.1055276E+00
       21   -1    0    0  504  502  0.00000000000E+00  0.00000000000E+00  0.17450190486E+04  0.17450190486E+04  0.00000000000E+00 0.  1.
       21   -1    0    0  501  503  0.00000000000E+00  0.00000000000E+00 -0.59967330453E+03  0.59967330453E+03  0.00000000000E+00 0.  1.
  1000006    1    1    2  501    0  0.10350420252E+03 -0.54765201568E+02 -0.39060316484E+03  0.53738550374E+03  0.35000000000E+03 0.  0.
 -1000006    1    1    2    0  505 -0.29645019145E+02 -0.64518769973E+01  0.58268555834E+03  0.68039908420E+03  0.35000000000E+03 0.  0.
       21    1    1    2  504  503  0.25148939783E+02  0.46115369875E+02 -0.76218644718E+02  0.92565535236E+02  0.00000000000E+00 0. -1.
       21    1    1    2  505  502 -0.99008123156E+02  0.15101708691E+02  0.10294819953E+04  0.10343422299E+04  0.00000000000E+00 0.  1.
<scales pt_clust_1="13000.00000" pt_clust_2="13000.00000" pt_clust_3="52.52710" pt_clust_4="100.06905"></scales>
<clustering>
<clus scale="   52.527">  2  5  1 -1</clus>
<clus scale="  100.069">  1  6  2 -1</clus>
<clus scale="  368.479">  2  3  1 -1</clus>
<clus scale="  368.479">  1  3  2 -1</clus>
</clustering>
</event>
<event>
 5   1  0.3464723E-02  0.3769290E+03  0.7816531E-02  0.1052075E+00
        2   -1    0    0  501    0  0.00000000000E+00  0.00000000000E+00  0.93929494727E+03  0.93929494727E+03  0.00000000000E+00 0.  1.
       21   -1    0    0  502  503  0.00000000000E+00  0.00000000000E+00 -0.41826696178E+03  0.41826696178E+03  0.00000000000E+00 0. -1.
  1000006    1    1    2  501    0 -0.21088201176E+02 -0.16646996848E+03 -0.19748185706E+02  0.38864759548E+03  0.35000000000E+03 0.  0.
 -1000006    1    1    2    0  503 -0.23473290589E+02  0.11667978994E+03 -0.51171506185E+02  0.37320730405E+03  0.35000000000E+03 0.  0.
        2    1    1    2  502    0  0.44561491765E+02  0.49790178543E+02  0.59194767738E+03  0.59570700951E+03  0.00000000000E+00 0.  1.
<scales pt_clust_1="13000.00000" pt_clust_2="13000.00000" pt_clust_3="66.81907"></scales>
<clustering>
<clus scale="   66.819">  1  5  2 -1</clus>
<clus scale="  376.929">  2  4  1 -1</clus>
<clus scale="  376.929">  2  3  1 -1</clus>
</clustering>
</event>
<event>
 5   1  0.3464723E-02  0.4324233E+03  0.7816531E-02  0.1033097E+00
       -1   -1    0    0    0  501  0.00000000000E+00  0.00000000000E+00  0.39126022032E+03  0.39126022032E+03  0.00000000000E+00 0. -1.
       21   -1    0    0  502  503  0.00000000000E+00  0.00000000000E+00 -0.12925498665E+04  0.12925498665E+04  0.00000000000E+00 0. -1.
  1000006    1    1    2  502    0  0.15428519343E+03 -0.22051067245E+03 -0.65819540965E+03  0.79255919328E+03  0.35000000000E+03 0.  0.
 -1000006    1    1    2    0  501 -0.14323791243E+03  0.18789524416E+03 -0.48719507179E+03  0.64473309230E+03  0.35000000000E+03 0.  0.
       -1    1    1    2    0  503 -0.11047281003E+02  0.32615428295E+02  0.24410083523E+03  0.24651780127E+03  0.00000000000E+00 0. -1.
<scales pt_clust_1="13000.00000" pt_clust_2="13000.00000" pt_clust_3="34.43557"></scales>
<clustering>
<clus scale="   34.436">  1  5  2 -1</clus>
<clus scale="  432.423">  1  4  2 -1</clus>
<clus scale="  432.423">  2  3  1 -1</clus>
</clustering>
</event>
<event>
 5   1  0.3464723E-02  0.4796954E+03  0.7816531E-02  0.1019219E+00
       -2   -1    0    0    0  501  0.00000000000E+00  0.00000000000E+00  0.29330654027E+04  0.29330654027E+04  0.00000000000E+00 0.  1.
       21   -1    0    0  501  503  0.00000000000E+00  0.00000000000E+00 -0.31951410798E+03  0.31951410798E+03  0.00000000000E+00 0. -1.
  1000006    1    1    2  502    0  0.30682986755E+03  0.12898726861E+03  0.14826138247E+04  0.15593030611E+04  0.35000000000E+03 0.  0.
 -1000006    1    1    2    0  503 -0.28442174292E+03 -0.16272480090E+03 -0.76190759855E+02  0.48546896972E+03  0.35000000000E+03 0.  0.
       -2    1    1    2    0  502 -0.22408124635E+02  0.33737532283E+02  0.12071282298E+04  0.12078074799E+04  0.00000000000E+00 0.  1.
<scales pt_clust_1="13000.00000" pt_clust_2="13000.00000" pt_clust_3="40.50117"></scales>
<clustering>
<clus scale="   40.501">  1  5  2 -1</clus>
<clus scale="  479.695">  1  3  2 -1</clus>
<clus scale="  479.695">  2  3  1 -1</clus>
</clustering>
</event>
<event>
 4   0  0.3464723E-02  0.3993324E+03  0.7816531E-02  0.1044011E+00
       21   -1    0    0  501  502  0.00000000000E+00  0.00000000000E+00  0.85996478813E+03  0.85996478813E+03  0.00000000000E+00 0.  1.
       21   -1    0    0  502  503  0.00000000000E+00  0.00000000000E+00 -0.26048648413E+03  0.26048648413E+03  0.00000000000E+00 0.  1.
  1000006    1    1    2  501    0 -0.14308874233E+03 -0.12842122557E+03  0.60045337112E+03  0.72111763968E+03  0.35000000000E+03 0.  0.
 -1000006    1    1    2    0  503  0.14308874233E+03  0.12842122557E+03 -0.97506712013E+00  0.39933363259E+03  0.35000000000E+03 0.  0.
<scales pt_clust_1="13000.00000" pt_clust_2="13000.00000"></scales>
<clustering>
<clus scale="  399.332">  1  3  2 -1</clus>
<clus scale="  399.332">  1  3  2 -1</clus>
</clustering>
</event>
<event>
 4   0  0.3464723E-02  0.4627120E+03  0.7816531E-02  0.1023998E+00
       -4   -1    0    0    0  501  0.00000000000E+00  0.00000000000E+00  0.43080851670E+03  0.43080851670E+03  0.00000000000E+00 0. -1.
        4   -1    0    0  502    0  0.00000000000E+00  0.00000000000E+00 -0.51295403809E+03  0.51295403809E+03  0.00000000000E+00 0.  1.
  1000006    1    1    2  502    0  0.29273648181E+03  0.76861902075E+02  0.42204542235E+02  0.46463278313E+03  0.35000000000E+03 0.  0.
 -1000006    1    1    2    0  501 -0.29273648181E+03 -0.76861902075E+02 -0.12435006363E+03  0.47912977167E+03  0.35000000000E+03 0.  0.
<scales pt_clust_1="13000.00000" pt_clust_2="13000.00000"></scales>
<clustering>
<clus scale="  718.638">  3  4 -1 -1</clus>
<clus scale="  462.712">  2  3  1 -1</clus>
</clustering>
</event>
<event>
 5   1  0.3464723E-02  0.3642556E+03  0.7816531E-02  0.1056911E+00
       21   -1    0    0  504  502  0.00000000000E+00  0.00000000000E+00  0.66497167041E+03  0.66497167041E+03  0.00000000000E+00 0. -1.
       21   -1    0    0  501  503  0.00000000000E+00  0.00000000000E+00 -0.26906592745E+03  0.26906592745E+03  0.00000000000E+00 0. -1.
  1000006    1    1    2  501    0 -0.71242294217E+02  0.17818233324E+00  0.97746399280E+02  0.37031048433E+03  0.35000000000E+03 0.  0.
 -1000006    1    1    2    0  502  0.10832780158E+03 -0.59023927361E+02  0.32083769798E+03  0.49056657555E+03  0.35000000000E+03 0.  0.
       21    1    1    2  504  503 -0.37085507365E+02  0.58845745028E+02 -0.22678354305E+02  0.73160537986E+02  0.00000000000E+00 0. -1.
<scales pt_clust_1="13000.00000" pt_clust_2="13000.00000" pt_clust_3="69.55686"></scales>
<clustering>
<clus scale="   69.557">  2  5  1 -1</clus>
<clus scale="  364.256">  2  3  1 -1</clus>
<clus scale="  364.256">  1  3  2 -1</clus>
</clustering>
</event>
<event>
 5   1  0.3464723E-02  0.3875770E+03  0.7816531E-02  0.1048168E+00
       21   -1    0    0  501  502  0.00000000000E+00  0.00000000000E+00  0.28156989992E+03  0.28156989992E+03  0.00000000000E+00 0. -1.
       21   -1    0    0  504  503  0.00000000000E+00  0.00000000000E+00 -0.10876149639E+04  0.10876149639E+04  0.00000000000E+00 0. -1.
  1000006    1    1    2  501    0 -0.19633923280E+03  0.11269063582E+03 -0.10074863681E+03  0.42883395569E+03  0.35000000000E+03 0.  0.
 -1000006    1    1    2    0  503 -0.44922615195E+02 -0.13883249161E+03 -0.43703642480E+03  0.57861328941E+03  0.35000000000E+03 0.  0.
       21    1    1    2  504  502  0.24126184799E+03  0.26141855786E+02 -0.26826000241E+03  0.36173761874E+03  0.00000000000E+00 0. -1.
<scales pt_clust_1="13000.00000" pt_clust_2="13000.00000" pt_clust_3="242.67401"></scales>
<clustering>
<clus scale="  242.674">  2  5  1 -1</clus>
<clus scale="  387.577">  1  3  2 -1</clus>
<clus scale="  387.577">  1  3  2 -1</clus>
</clustering>
</event>
<event>
 5   1  0.3464723E-02  0.4257184E+03  0.7816531E-02  0.1035221E+00
       21   -1    0    0  501  502  0.00000000000E+00  0.00000000000E+00  0.49809013924E+03  0.49809013924E+03  0.00000000000E+00 0.  1.
       21   -1    0    0  502  503  0.00000000000E+00  0.00000000000E+00 -0.62095603570E+03  0.62095603570E+03  0.00000000000E+00 0.  1.
  1000006    1    1    2  501    0 -0.50130644649E+02  0.18642213870E+03 -0.11278333716E+02  0.39986684801E+03  0.35000000000E+03 0.  0.
 -1000006    1    1    2    0  504 -0.11839540078E+03 -0.30063249914E+03  0.20028902979E+02  0.47675835328E+03  0.35000000000E+03 0.  0.
       21    1    1    2  504  503  0.16852604543E+03  0.11421036044E+03 -0.13161646572E+03  0.24242097365E+03  0.00000000000E+00 0.  1.
<scales pt_clust_1="13000.00000" pt_clust_2="13000.00000" pt_clust_3="203.58054"></scales>
<clustering>
<clus scale="  203.581">  2  5  1 -1</clus>
<clus scale="  425.718">  1  3  2 -1</clus>
<clus scale="  425.718">  1  3  2 -1</clus>
</clustering>
</event>
<event>
 5   1  0.3464723E-02  0.3698516E+03  0.7816531E-02  0.1054750E+00
       21   -1    0    0  504  502  0.00000000000E+00  0.00000000000E+00  0.27132847413E+03  0.27132847413E+03  0.00000000000E+00 0.  1.
       21   -1    0    0  501  503  0.00000000000E+00  0.00000000000E+00 -0.61276274152E+03  0.61276274152E+03  0.00000000000E+00 0.  1.
  1000006    1    1    2  501    0 -0.12676211082E+03  0.41305135683E+02 -0.27482571651E+03  0.46454700670E+03  0.35000000000E+03 0.  0.
 -1000006    1    1    2    0  502  0.99718405465E+02 -0.96059774849E+01 -0.85239671660E+02  0.37390083821E+03  0.35000000000E+03 0.  0.
       21    1    1    2  504  503  0.27043705360E+02 -0.31699158198E+02  0.18631120784E+02  0.45643370732E+02  0.00000000000E+00 0. -1.
<scales pt_clust_1="13000.00000" pt_clust_2="13000.00000" pt_clust_3="41.66772"></scales>
<clustering>
<clus scale="   41.668">  1  5  2 -1</clus>
<clus scale="  369.852">  2  3  1 -1</clus>
<clus scale="  369.852">  1  3  2 -1</clus>
</clustering>
</event>
<event>
 5   1  0.3464723E-02  0.3717047E+03  0.7816531E-02  0.1054043E+00
       21   -1    0    0  504  502  0.00000000000E+00  0.00000000000E+00  0.11193635592E+03  0.11193635592E+03  0.00000000000E+00 0.  1.
       21   -1    0    0  501  503  0.00000000000E+00  0.00000000000E+00 -0.15469134007E+04  0.15469134007E+04  0.00000000000E+00 0.  1.
  1000006    1    1    2  501    0 -0.76178102668E+02  0.11564821596E+03 -0.86701419160E+03  0.94519374819E+03  0.35000000000E+03 0.  0.
 -1000006    1    1    2    0  502  0.63952484841E+02 -0.85880089265E+02 -0.57414424505E+03  0.68088686591E+03  0.35000000000E+03 0.  0.
       21    1    1    2  504  503  0.12225617827E+02 -0.29768126692E+02  0.61813918433E+01  0.32769142545E+02  0.00000000000E+00 0.  1.
<scales pt_clust_1="13000.00000" pt_clust_2="13000.00000" pt_clust_3="32.18085"></scales>
<clustering>
<clus scale="   32.181">  1  5  2 -1</clus>
<clus scale="  371.705">  1  4  2 -1</clus>
<clus scale="  371.705">  1  3  2 -1</clus>
</clustering>
</event>
<event>
 5   1  0.3464723E-02  0.3930737E+03  0.7816531E-02  0.1046205E+00
       21   -1    0    0  503  502  0.00000000000E+00  0.00000000000E+00  0.18298763578E+03  0.18298763578E+03  0.00000000000E+00 0. -1.
       21   -1    0    0  501  503  0.00000000000E+00  0.00000000000E+00 -0.14256596741E+04  0.14256596741E+04  0.00000000000E+00 0. -1.
  1000006    1    1    2  501    0 -0.51695020037E+02  0.16040896006E+03 -0.10234912826E+04  0.10947318462E+04  0.35000000000E+03 0.  0.
 -1000006    1    1    2    0  504  0.87500455406E+02 -0.19881729794E+03 -0.20097076626E+03  0.45833819015E+03  0.35000000000E+03 0.  0.
       21    1    1    2  504  502 -0.35805435369E+02  0.38408337879E+02 -0.18209989532E+02  0.55577273587E+02  0.00000000000E+00 0. -1.
<scales pt_clust_1="13000.00000" pt_clust_2="13000.00000" pt_clust_3="52.50933"></scales>
<clustering>
<clus scale="   52.509">  1  5  2 -1</clus>
<clus scale="  393.074">  1  4  2 -1</clus>
<clus scale="  393.074">  1  3  2 -1</clus>
</clustering>
</event>
<event>
 4   0  0.3464723E-02  0.3521521E+03  0.7816531E-02  0.1061735E+00
       21   -1    0    0  501  502  0.00000000000E+00  0.00000000000E+00  0.10918858058E+04  0.10918858058E+04  0.00000000000E+00 0. -1.
       21   -1    0    0  502  503  0.00000000000E+00  0.00000000000E+00 -0.13466357242E+03  0.13466357242E+03  0.00000000000E+00 0. -1.
  1000006    1    1    2  501    0 -0.14435617901E+02 -0.36092859412E+02  0.72130126121E+03  0.80267464828E+03  0.35000000000E+03 0.  0.
 -1000006    1    1    2    0  503  0.14435617901E+02  0.36092859412E+02  0.23592097215E+03  0.42387472992E+03  0.35000000000E+03 0.  0.
<scales pt_clust_1="13000.00000" pt_clust_2="13000.00000"></scales>
<clustering>
<clus scale="  352.152">  1  3  2 -1</clus>
<clus scale="  352.152">  1  3  2 -1</clus>
</clustering>
</event>
<event>
 5   1  0.3464723E-02  0.3533968E+03  0.7816531E-02  0.1061229E+00
       21   -1    0    0  501  503  0.00000000000E+00  0.00000000000E+00  0.76279252078E+03  0.76279252078E+03  0.00000000000E+00 0.  1.
       -2   -1    0    0    0  501  0.00000000000E+00  0.00000000000E+00 -0.27492698730E+03  0.27492698730E+03  0.00000000000E+00 0.  1.
  1000006    1    1    2  502    0  0.47761624673E+01 -0.26197039858E+02  0.24916804774E+03  0.43045767811E+03  0.35000000000E+03 0.  0.
 -1000006    1    1    2    0  503 -0.77792718710E+02 -0.74797118097E+02  0.29521246587E+03  0.47042184895E+03  0.35000000000E+03 0.  0.
       -2    1    1    2    0  502  0.73016556243E+02  0.10099415796E+03 -0.56514980133E+02  0.13683998102E+03  0.00000000000E+00 0.  1.
<scales pt_clust_1="13000.00000" pt_clust_2="13000.00000" pt_clust_3="124.62439"></scales>
<clustering>
<clus scale="  124.624">  2  5  1 -1</clus>
<clus scale="  353.397">  2  3  1 -1</clus>
<clus scale="  353.397">  1  3  2 -1</clus>
</clustering>
</event>
<event>
 4   0  0.3464723E-02  0.3647821E+03  0.7816531E-02  0.1056706E+00
       21   -1    0    0  503  502  0.00000000000E+00  0.00000000000E+00  0.44082268792E+03  0.44082268792E+03  0.00000000000E+00 0. -1.
       21   -1    0    0  501  503  0.00000000000E+00  0.00000000000E+00 -0.30199607772E+03  0.30199607772E+03  0.00000000000E+00 0. -1.
  1000006    1    1    2  501    0  0.90901067856E+02  0.47989016919E+02  0.61477791967E+02  0.36992630183E+03  0.35000000000E+03 0.  0.
 -1000006    1    1    2    0  502 -0.90901067856E+02 -0.47989016919E+02  0.77348818233E+02  0.37289246381E+03  0.35000000000E+03 0.  0.
<scales pt_clust_1="13000.00000" pt_clust_2="13000.00000"></scales>
<clustering>
<clus scale="  364.782">  2  3  1 -1</clus>
<clus scale="  364.782">  1  3  2 -1</clus>
</clustering>
</event>
<event>
 4   0  0.3464723E-02  0.3596826E+03  0.7816531E-02  0.1058710E+00
       21   -1    0    0  503  502  0.00000000000E+00  0.00000000000E+00  0.59749783276E+03  0.59749783276E+03  0.00000000000E+00 0. -1.
       21   -1    0    0  501  503  0.00000000000E+00  0.00000000000E+00 -0.24926137054E+03  0.24926137054E+03  0.00000000000E+00 0. -1.
  1000006    1    1    2  501    0  0.78251640476E+02 -0.27354725054E+02  0.20679263950E+02  0.36027660509E+03  0.35000000000E+03 0.  0.
 -1000006    1    1    2    0  502 -0.78251640476E+02  0.27354725054E+02  0.32755719827E+03  0.48648259821E+03  0.35000000000E+03 0.  0.
<scales pt_clust_1="13000.00000" pt_clust_2="13000.00000"></scales>
<clustering>
<clus scale="  359.683">  2  3  1 -1</clus>
<clus scale="  359.683">  1  3  2 -1</clus>
</clustering>
</event>
<event>
 5   1  0.3464723E-02  0.3547471E+03  0.7816531E-02  0.1060683E+00
       21   -1    0    0  501  502  0.00000000000E+00  0.00000000000E+00  0.32154328047E+03  0.32154328047E+03  0.00000000000E+00 0. -1.
       21   -1    0    0  502  503  0.00000000000E+00  0.00000000000E+00 -0.81893254457E+03  0.81893254457E+03  0.00000000000E+00 0. -1.
  1000006    1    1    2  501    0  0.16669417668E+02 -0.55272197496E+02  0.76272698481E+02  0.36283661590E+03  0.35000000000E+03 0.  0.
 -1000006    1    1    2    0  504 -0.10295970077E+03  0.31319553470E+01 -0.25955644424E+03  0.44774999372E+03  0.35000000000E+03 0.  0.
       21    1    1    2  504  503  0.86290283101E+02  0.52140242149E+02 -0.31410551834E+03  0.32988921543E+03  0.00000000000E+00 0.  1.
<scales pt_clust_1="13000.00000" pt_clust_2="13000.00000" pt_clust_3="100.81973"></scales>
<clustering>
<clus scale="  100.820">  2  5  1 -1</clus>
<clus scale="  354.747">  2  4  1 -1</clus>
<clus scale="  354.747">  1  3  2 -1</clus>
</clustering>
</event>
<event>
 5   1  0.3464723E-02  0.3626689E+03  0.7816531E-02  0.1057532E+00
       21   -1    0    0  501  502  0.00000000000E+00  0.00000000000E+00  0.74039333005E+03  0.74039333005E+03  0.00000000000E+00 0.  1.
       21   -1    0    0  502  503  0.00000000000E+00  0.00000000000E+00 -0.49451490351E+03  0.49451490351E+03  0.00000000000E+00 0.  1.
  1000006    1    1    2  501    0 -0.18277816369E+02 -0.12826281904E+03  0.44614826709E+03  0.58166459885E+03  0.35000000000E+03 0.  0.
 -1000006    1    1    2    0  504 -0.36948747414E+02  0.23719005324E+02  0.68756869890E+02  0.35938184193E+03  0.35000000000E+03 0.  0.
       21    1    1    2  504  503  0.55226563784E+02  0.10454381372E+03 -0.26902671044E+03  0.29386179279E+03  0.00000000000E+00 0.  1.
<scales pt_clust_1="13000.00000" pt_clust_2="13000.00000" pt_clust_3="118.23444"></scales>
<clustering>
<clus scale="  118.234">  2  5  1 -1</clus>
<clus scale="  362.669">  1  3  2 -1</clus>
<clus scale="  362.669">  1  3  2 -1</clus>
</clustering>
</event>
<event>
 5   1  0.3464723E-02  0.5296053E+03  0.7816531E-02  0.1017370E+00
       21   -1    0    0  501  502  0.00000000000E+00  0.00000000000E+00  0.10114950331E+04  0.10114950331E+04  0.00000000000E+00 0. -1.
       21   -1    0    0  504  503  0.00000000000E+00  0.00000000000E+00 -0.16056708929E+04  0.16056708929E+04  0.00000000000E+00 0.  1.
  1000006    1    1    2  501    0 -0.12948581015E+03  0.53834572494E+02  0.77032477977E+02  0.38483598960E+03  0.35000000000E+03 0.  0.
 -1000006    1    1    2    0  503 -0.64409080979E+02  0.29781130300E+03  0.67970040078E+03  0.82300227019E+03  0.35000000000E+03 0.  0.
       21    1    1    2  504  502  0.19389489113E+03 -0.35164587550E+03 -0.13509087386E+04  0.14093276662E+04  0.00000000000E+00 0.  1.
<scales pt_clust_1="13000.00000" pt_clust_2="13000.00000" pt_clust_3="397.46916"></scales>
<clustering>
<clus scale="  377.047">  1  3  2 -1</clus>
<clus scale="  397.469">  2  5  1 -1</clus>
<clus scale="  529.605">  1  3  2 -1</clus>
</clustering>
</event>
<event>
 6   2  0.3464723E-02  0.3587777E+03  0.7816531E-02  0.1059069E+00
        2   -1    0    0  504    0  0.00000000000E+00  0.00000000000E+00  0.24794124713E+04  0.24794124713E+04  0.00000000000E+00 0. -1.
       21   -1    0    0  501  503  0.00000000000E+00  0.00000000000E+00 -0.20586273701E+03  0.20586273701E+03  0.00000000000E+00 0. -1.
  1000006    1    1    2  501    0  0.23971903638E+02 -0.61415991080E+02  0.78414041845E+03  0.86123328545E+03  0.35000000000E+03 0.  0.
 -1000006    1    1    2    0  502 -0.19790627615E+02  0.94945385464E+02  0.14277008217E+04  0.14731720644E+04  0.35000000000E+03 0.  0.
       21    1    1    2  504  503 -0.74465657263E+02 -0.21123105030E+02 -0.12721613302E+03  0.14891361314E+03  0.00000000000E+00 0. -1.
        2    1    1    2  502    0  0.70284381240E+02 -0.12406289354E+02  0.18892462715E+03  0.20195624528E+03  0.00000000000E+00 0. -1.
<scales pt_clust_1="13000.00000" pt_clust_2="13000.00000" pt_clust_3="77.09866" pt_clust_4="71.37093"></scales>
<clustering>
<clus scale="   71.371">  1  6  2 -1</clus>
<clus scale="   77.099">  2  5  1 -1</clus>
<clus scale="  358.778">  2  3  1 -1</clus>
<clus scale="  358.778">  2  3  1 -1</clus>
</clustering>
</event>
<event>
 4   0  0.3464723E-02  0.3840930E+03  0.7816531E-02  0.1049431E+00
       21   -1    0    0  501  502  0.00000000000E+00  0.00000000000E+00  0.12669085370E+04  0.12669085370E+04  0.00000000000E+00 0. -1.
       21   -1    0    0  502  503  0.00000000000E+00  0.00000000000E+00 -0.11778402822E+03  0.11778402822E+03  0.00000000000E+00 0. -1.
  1000006    1    1    2  501    0 -0.15819872468E+03  0.79222915555E+00  0.64833237315E+03  0.75356640729E+03  0.35000000000E+03 0.  0.
 -1000006    1    1    2    0  503  0.15819872468E+03 -0.79222915555E+00  0.50079213563E+03  0.63112615794E+03  0.35000000000E+03 0.  0.
<scales pt_clust_1="13000.00000" pt_clust_2="13000.00000"></scales>
<clustering>
<clus scale="  384.093">  1  3  2 -1</clus>
<clus scale="  384.093">  1  3  2 -1</clus>
</clustering>
</event>
<event>
 5   1  0.3464723E-02  0.3500562E+03  0.7816531E-02  0.1062592E+00
       21   -1    0    0  504  502  0.00000000000E+00  0.00000000000E+00  0.31845945543E+03  0.31845945543E+03  0.00000000000E+00 0. -1.
       21   -1    0    0  501  503  0.00000000000E+00  0.00000000000E+00 -0.44293364436E+03  0.44293364436E+03  0.00000000000E+00 0. -1.
  1000006    1    1    2  501    0 -0.12311614299E+02  0.17052207993E+02 -0.64755056179E+02  0.35656075351E+03  0.35000000000E+03 0.  0.
 -1000006    1    1    2    0  502 -0.71571185435E+01  0.27500552446E+02 -0.44944213821E+02  0.35401622433E+03  0.35000000000E+03 0.  0.
       21    1    1    2  504  503  0.19468732843E+02 -0.44552760439E+02 -0.14774918929E+02  0.50816121955E+02  0.00000000000E+00 0. -1.
<scales pt_clust_1="13000.00000" pt_clust_2="13000.00000" pt_clust_3="48.62078"></scales>
<clustering>
<clus scale="   48.621">  2  5  1 -1</clus>
<clus scale="  350.056">  1  4  2 -1</clus>
<clus scale="  350.056">  1  3  2 -1</clus>
</clustering>
</event>
<event>
 6   2  0.3464723E-02  0.3890489E+03  0.7816531E-02  0.1047639E+00
       21   -1    0    0  504  503  0.00000000000E+00  0.00000000000E+00  0.29253689027E+03  0.29253689027E+03  0.00000000000E+00 0. -1.
       -1   -1    0    0    0  501  0.00000000000E+00  0.00000000000E+00 -0.10693984368E+04  0.10693984368E+04  0.00000000000E+00 0. -1.
  1000006    1    1    2  502    0  0.19039330386E+03  0.74634732435E+02 -0.23758408701E+03  0.46985758676E+03  0.35000000000E+03 0.  0.
 -1000006    1    1    2    0  503 -0.14698258734E+03 -0.30237068600E+02 -0.41978927409E+02  0.38311929166E+03  0.35000000000E+03 0.  0.
       21    1    1    2  504  501 -0.38371753882E+02  0.53568180195E+01 -0.82367834608E+02  0.91024981040E+02  0.00000000000E+00 0.  1.
       -1    1    1    2    0  502 -0.50389626379E+01 -0.49754481855E+02 -0.41493069746E+03  0.41793346755E+03  0.00000000000E+00 0. -1.
<scales pt_clust_1="13000.00000" pt_clust_2="13000.00000" pt_clust_3="38.74386" pt_clust_4="52.04269"></scales>
<clustering>
<clus scale="   38.744">  2  5  1 -1</clus>
<clus scale="   52.043">  2  6  1 -1</clus>
<clus scale="  389.049">  1  4  2 -1</clus>
<clus scale="  389.049">  1  3  2 -1</clus>
</clustering>
</event>
<event>
 6   2  0.3464723E-02  0.4032601E+03  0.7816531E-02  0.1042657E+00
       21   -1    0    0  505  502  0.00000000000E+00  0.00000000000E+00  0.91166260247E+03  0.91166260247E+03  0.00000000000E+00 0. -1.
       21   -1    0    0  501  503  0.00000000000E+00  0.00000000000E+00 -0.33487561164E+03  0.33487561164E+03  0.00000000000E+00 0. -1.
  1000006    1    1    2  501    0 -0.24337054275E+02  0.17423357887E+03 -0.29796300792E+02  0.39285805548E+03  0.35000000000E+03 0.  0.
 -1000006    1    1    2    0  504 -0.20575660645E+02 -0.26349822651E+03  0.34069871656E+03  0.55536500488E+03  0.35000000000E+03 0.  0.
       21    1    1    2  504  502  0.46006357663E+02  0.42819157234E+02  0.58744186600E+02  0.86028743051E+02  0.00000000000E+00 0.  1.
       21    1    1    2  505  503 -0.10936427432E+01  0.46445490406E+02  0.20714038846E+03  0.21228641069E+03  0.00000000000E+00 0. -1.
<scales pt_clust_1="13000.00000" pt_clust_2="13000.00000" pt_clust_3="66.12723" pt_clust_4="46.45836"></scales>
<clustering>
<clus scale="   46.458">  1  6  2 -1</clus>
<clus scale="   66.127">  1  5  2 -1</clus>
<clus scale="  403.260">  1  4  2 -1</clus>
<clus scale="  403.260">  1  3  2 -1</clus>
</clustering>
</event>
<event>
 4   0  0.3464723E-02  0.3595405E+03  0.7816531E-02  0.1058766E+00
       21   -1    0    0  503  502  0.00000000000E+00  0.00000000000E+00  0.13117346504E+04  0.13117346504E+04  0.00000000000E+00 0.  1.
       21   -1    0    0  501  503  0.00000000000E+00  0.00000000000E+00 -0.98551622378E+02  0.98551622378E+02  0.00000000000E+00 0.  1.
  1000006    1    1    2  501    0  0.80264603474E+02  0.18082170309E+02  0.60256914983E+03  0.70168294249E+03  0.35000000000E+03 0.  0.
 -1000006    1    1    2    0  502 -0.80264603474E+02 -0.18082170309E+02  0.61061387819E+03  0.70860333028E+03  0.35000000000E+03 0.  0.
<scales pt_clust_1="13000.00000" pt_clust_2="13000.00000"></scales>
<clustering>
<clus scale="  359.541">  2  3  1 -1</clus>
<clus scale="  359.541">  1  3  2 -1</clus>
</clustering>
</event>
<event>
 5   1  0.3464723E-02  0.3788434E+03  0.7816531E-02  0.1051362E+00
       21   -1    0    0  504  502  0.00000000000E+00  0.00000000000E+00  0.12359616158E+04  0.12359616158E+04  0.00000000000E+00 0. -1.
       21   -1    0    0  501  503  0.00000000000E+00  0.00000000000E+00 -0.18448256860E+03  0.18448256860E+03  0.00000000000E+00 0. -1.
  1000006    1    1    2  501    0 -0.26307423200E+02  0.15241743358E+03  0.18373791185E+03  0.42447941625E+03  0.35000000000E+03 0.  0.
 -1000006    1    1    2    0  502 -0.11310544112E+02 -0.12979177422E+03  0.49209899755E+03  0.61776634454E+03  0.35000000000E+03 0.  0.
       21    1    1    2  504  503  0.37617967312E+02 -0.22625659358E+02  0.37564213775E+03  0.37819842356E+03  0.00000000000E+00 0. -1.
<scales pt_clust_1="13000.00000" pt_clust_2="13000.00000" pt_clust_3="43.89797"></scales>
<clustering>
<clus scale="   43.898">  1  5  2 -1</clus>
<clus scale="  378.843">  1  4  2 -1</clus>
<clus scale="  378.843">  1  3  2 -1</clus>
</clustering>
</event>
<event>
 5   1  0.3464723E-02  0.8184761E+03  0.7816531E-02  0.9533652E-01
       21   -1    0    0  503  502  0.00000000000E+00  0.00000000000E+00  0.85403612992E+03  0.85403612992E+03  0.00000000000E+00 0.  1.
       21   -1    0    0  504  503  0.00000000000E+00  0.00000000000E+00 -0.16885511923E+04  0.16885511923E+04  0.00000000000E+00 0.  1.
  1000006    1    1    2  501    0 -0.67533896516E+02  0.73358960758E+03 -0.62055967933E+03  0.10248457714E+04  0.35000000000E+03 0.  0.
 -1000006    1    1    2    0  502  0.14152508824E+01 -0.74157646998E+03  0.39146381866E+03  0.90867022901E+03  0.35000000000E+03 0.  0.
       21    1    1    2  504  501  0.66118645634E+02  0.79868624075E+01 -0.60541920172E+03  0.60907132184E+03  0.00000000000E+00 0.  1.
<scales pt_clust_1="13000.00000" pt_clust_2="13000.00000" pt_clust_3="66.59929"></scales>
<clustering>
<clus scale="   66.599">  2  5  1 -1</clus>
<clus scale="  818.476">  2  3  1 -1</clus>
<clus scale="  818.476">  1  3  2 -1</clus>
</clustering>
</event>
<event>
 5   1  0.3464723E-02  0.4931305E+03  0.7816531E-02  0.1015588E+00
       -1   -1    0    0    0  501  0.00000000000E+00  0.00000000000E+00  0.10484911196E+04  0.10484911196E+04  0.00000000000E+00 0. -1.
        1   -1    0    0  502    0  0.00000000000E+00  0.00000000000E+00 -0.45942428812E+03  0.45942428812E+03  0.00000000000E+00 0.  1.
  1000006    1    1    2  502    0 -0.24481577301E+03  0.26087281328E+03  0.42135156671E+02  0.50225965282E+03  0.35000000000E+03 0.  0.
 -1000006    1    1    2    0  503  0.25118225613E+03 -0.22634884936E+03  0.30041112110E+02  0.48757440029E+03  0.35000000000E+03 0.  0.
       21    1    1    2  503  501 -0.63664831244E+01 -0.34523963920E+02  0.51689056271E+03  0.51808135463E+03  0.00000000000E+00 0. -1.
<scales pt_clust_1="13000.00000" pt_clust_2="13000.00000" pt_clust_3="35.10607"></scales>
<clustering>
<clus scale="   35.106">  1  5  2 -1</clus>
<clus scale="  778.351">  3  4 -1 -1</clus>
<clus scale="  493.130">  2  3  1 -1</clus>
</clustering>
</event>
<event>
 6   2  0.3464723E-02  0.3820282E+03  0.7816531E-02  0.1050187E+00
        2   -1    0    0  501    0  0.00000000000E+00  0.00000000000E+00  0.14561364328E+04  0.14561364328E+04  0.00000000000E+00 0. -1.
       21   -1    0    0  504  503  0.00000000000E+00  0.00000000000E+00 -0.34298308796E+03  0.34298308796E+03  0.00000000000E+00 0.  1.
  1000006    1    1    2  501    0 -0.92470618828E+02 -0.14332728896E+03  0.48532905462E+03  0.62220400060E+03  0.35000000000E+03 0.  0.
 -1000006    1    1    2    0  503 -0.16358533774E+03  0.15174939656E+03  0.61523857368E+03  0.74216342178E+03  0.35000000000E+03 0.  0.
       21    1    1    2  504  502  0.42640871463E+02  0.24157114684E+02 -0.15429089863E+03  0.16188728026E+03  0.00000000000E+00 0.  1.
        2    1    1    2  502    0  0.21341508510E+03 -0.32579222286E+02  0.16687661516E+03  0.27286481811E+03  0.00000000000E+00 0. -1.
<scales pt_clust_1="13000.00000" pt_clust_2="13000.00000" pt_clust_3="49.00827" pt_clust_4="227.09061"></scales>
<clustering>
<clus scale="   49.008">  2  5  1 -1</clus>
<clus scale="  227.091">  2  6  1 -1</clus>
<clus scale="  465.955">  3  4 -1 -1</clus>
<clus scale="  382.028">  2  3  1 -1</clus>
</clustering>
</event>
<event>
 6   2  0.3464723E-02  0.5533977E+03  0.7816531E-02  0.1000711E+00
       21   -1    0    0  505  502  0.00000000000E+00  0.00000000000E+00  0.47983584372E+03  0.47983584372E+03  0.00000000000E+00 0. -1.
       21   -1    0    0  502  503  0.00000000000E+00  0.00000000000E+00 -0.11432310090E+04  0.11432310090E+04  0.00000000000E+00 0.  1.
  1000006    1    1    2  501    0 -0.16369950526E+03 -0.34939778393E+03  0.94741363607E+02  0.52948301712E+03  0.35000000000E+03 0.  0.
 -1000006    1    1    2    0  504  0.64732131125E+02  0.39840910313E+03 -0.58809597532E+03  0.79452938173E+03  0.35000000000E+03 0.  0.
       21    1    1    2  504  503  0.60304599110E+02  0.64986257589E+02 -0.15388959984E+03  0.17760030205E+03  0.00000000000E+00 0.  1.
       21    1    1    2  505  501  0.38662775025E+02 -0.11399757679E+03 -0.16150953723E+02  0.12145415181E+03  0.00000000000E+00 0. -1.
<scales pt_clust_1="13000.00000" pt_clust_2="13000.00000" pt_clust_3="88.65584" pt_clust_4="117.53520"></scales>
<clustering>
<clus scale="   88.656">  2  5  1 -1</clus>
<clus scale="  117.535">  1  6  2 -1</clus>
<clus scale="  553.398">  2  4  1 -1</clus>
<clus scale="  553.398">  1  3  2 -1</clus>
</clustering>
</event>
<event>
 6   2  0.3464723E-02  0.3702099E+03  0.7816531E-02  0.1054613E+00
       21   -1    0    0  503  502  0.00000000000E+00  0.00000000000E+00  0.86552915134E+03  0.86552915134E+03  0.00000000000E+00 0.  1.
       21   -1    0    0  501  503  0.00000000000E+00  0.00000000000E+00 -0.42700900988E+03  0.42700900988E+03  0.00000000000E+00 0. -1.
  1000006    1    1    2  501    0 -0.67109945198E+02 -0.11560145176E+03 -0.19332066410E+03  0.42159259903E+03  0.35000000000E+03 0.  0.
 -1000006    1    1    2    0  504  0.95020067707E+02  0.40756536292E+02  0.17681828928E+03  0.40553004320E+03  0.35000000000E+03 0.  0.
       21    1    1    2  504  505  0.42929672993E+01  0.62947253427E+02  0.31380459278E+03  0.32008453373E+03  0.00000000000E+00 0.  1.
       21    1    1    2  505  502 -0.32203089809E+02  0.11897662042E+02  0.14121792350E+03  0.14533098524E+03  0.00000000000E+00 0.  1.
<scales pt_clust_1="13000.00000" pt_clust_2="13000.00000" pt_clust_3="68.87460" pt_clust_4="34.33065"></scales>
<clustering>
<clus scale="   34.331">  1  6  2 -1</clus>
<clus scale="   68.875">  1  5  2 -1</clus>
<clus scale="  370.210">  2  3  1 -1</clus>
<clus scale="  370.210">  1  3  2 -1</clus>
</clustering>
</event>
<event>
 6   2  0.3464723E-02  0.5325984E+03  0.7816531E-02  0.1012849E+00
       21   -1    0    0  501  502  0.00000000000E+00  0.00000000000E+00  0.24072012708E+04  0.24072012708E+04  0.00000000000E+00 0. -1.
       21   -1    0    0  504  503  0.00000000000E+00  0.00000000000E+00 -0.31147494217E+03  0.31147494217E+03  0.00000000000E+00 0.  1.
  1000006    1    1    2  501    0 -0.31727644179E+03 -0.97473987785E+02  0.78259623893E+03  0.91930538560E+03  0.35000000000E+03 0.  0.
 -1000006    1    1    2    0  503 -0.48596957124E+00 -0.24227513508E+03  0.27229329415E+02  0.42654297981E+03  0.35000000000E+03 0.  0.
       21    1    1    2  504  505  0.17128129119E+03  0.19986881265E+03  0.55290085045E+03  0.61235951320E+03  0.00000000000E+00 0. -1.
       21    1    1    2  505  502  0.14648112017E+03  0.13988031021E+03  0.73299990985E+03  0.76046833438E+03  0.00000000000E+00 0. -1.
<scales pt_clust_1="13000.00000" pt_clust_2="13000.00000" pt_clust_3="419.37355" pt_clust_4="106.40211"></scales>
<clustering>
<clus scale="  106.402">  5  6 -1 -1</clus>
<clus scale="  425.673">  2  4  1 -1</clus>
<clus scale="  419.374">  1  5  2 -1</clus>
<clus scale="  532.598">  1  3  2 -1</clus>
</clustering>
</event>
<event>
 6   2  0.3464723E-02  0.3577451E+03  0.7816531E-02  0.1059480E+00
       21   -1    0    0  504  502  0.00000000000E+00  0.00000000000E+00  0.52985311838E+03  0.52985311838E+03  0.00000000000E+00 0. -1.
       21   -1    0    0  501  503  0.00000000000E+00  0.00000000000E+00 -0.33417512402E+03  0.33417512402E+03  0.00000000000E+00 0. -1.
  1000006    1    1    2  501    0 -0.62337023486E+01  0.46755746726E+02 -0.18112020847E+02  0.35362834190E+03  0.35000000000E+03 0.  0.
 -1000006    1    1    2    0  505  0.35728626517E+02 -0.96685690049E+02  0.14319652481E+03  0.39195650541E+03  0.35000000000E+03 0.  0.
       21    1    1    2  504  503 -0.23823127437E+02  0.19315621050E+02 -0.98274011952E+01  0.32205782582E+02  0.00000000000E+00 0.  1.
       21    1    1    2  505  502 -0.56717967319E+01  0.30614322273E+02  0.80420891596E+02  0.86237612510E+02  0.00000000000E+00 0. -1.
<scales pt_clust_1="13000.00000" pt_clust_2="13000.00000" pt_clust_3="30.66977" pt_clust_4="31.35252"></scales>
<clustering>
<clus scale="   30.670">  2  5  1 -1</clus>
<clus scale="   31.353">  1  6  2 -1</clus>
<clus scale="  357.745">  2  3  1 -1</clus>
<clus scale="  357.745">  1  3  2 -1</clus>
</clustering>
</event>
<event>
 6   2  0.3464723E-02  0.5462314E+03  0.7816531E-02  0.1002370E+00
        2   -1    0    0  501    0  0.00000000000E+00  0.00000000000E+00  0.14341027449E+04  0.14341027449E+04  0.00000000000E+00 0.  1.
       21   -1    0    0  502  503  0.00000000000E+00  0.00000000000E+00 -0.63972086632E+03  0.63972086632E+03  0.00000000000E+00 0. -1.
  1000006    1    1    2  501    0 -0.15872397989E+03 -0.29618196660E+03  0.74261049627E+03  0.88706674399E+03  0.35000000000E+03 0.  0.
 -1000006    1    1    2    0  504  0.34120031847E+03  0.30402971158E+03  0.13256066560E+03  0.59069793712E+03  0.35000000000E+03 0.  0.
       21    1    1    2  504  503 -0.21758972486E+02  0.37347862588E+02 -0.30971809575E+03  0.31271970606E+03  0.00000000000E+00 0. -1.
        2    1    1    2  502    0 -0.16071736609E+03 -0.45195607572E+02  0.22892881243E+03  0.28333922402E+03  0.00000000000E+00 0.  1.
<scales pt_clust_1="13000.00000" pt_clust_2="13000.00000" pt_clust_3="43.22402" pt_clust_4="167.88440"></scales>
<clustering>
<clus scale="   43.224">  2  5  1 -1</clus>
<clus scale="  167.884">  1  6  2 -1</clus>
<clus scale="  546.231">  2  4  1 -1</clus>
<clus scale="  546.231">  2  3  1 -1</clus>
</clustering>
</event>
<event>
 5   1  0.3464723E-02  0.3815628E+03  0.7816531E-02  0.1050358E+00
       21   -1    0    0  504  502  0.00000000000E+00  0.00000000000E+00  0.67085565396E+03  0.67085565396E+03  0.00000000000E+00 0.  1.
       21   -1    0    0  501  503  0.00000000000E+00  0.00000000000E+00 -0.39314960677E+03  0.39314960677E+03  0.00000000000E+00 0.  1.
  1000006    1    1    2  501    0  0.17838662775E+03  0.38413163597E+02  0.10200886506E+03  0.40768022842E+03  0.35000000000E+03 0.  0.
 -1000006    1    1    2    0  502 -0.13692514882E+03  0.18730622059E+02  0.32110778791E+03  0.49468125499E+03  0.35000000000E+03 0.  0.
       21    1    1    2  504  503 -0.41461478927E+02 -0.57143785655E+02 -0.14541060578E+03  0.16164377732E+03  0.00000000000E+00 0.  1.
<scales pt_clust_1="13000.00000" pt_clust_2="13000.00000" pt_clust_3="70.60075"></scales>
<clustering>
<clus scale="   70.601">  2  5  1 -1</clus>
<clus scale="  381.563">  1  4  2 -1</clus>
<clus scale="  381.563">  1  3  2 -1</clus>
</clustering>
</event>
<event>
 6   2  0.3464723E-02  0.4597557E+03  0.7816531E-02  0.1024852E+00
       21   -1    0    0  504  502  0.00000000000E+00  0.00000000000E+00  0.85219495378E+03  0.85219495378E+03  0.00000000000E+00 0.  1.
       21   -1    0    0  501  503  0.00000000000E+00  0.00000000000E+00 -0.77916599446E+03  0.77916599446E+03  0.00000000000E+00 0. -1.
  1000006    1    1    2  501    0  0.23765004179E+03  0.15764627717E+03  0.12848242748E+03  0.46940134772E+03  0.35000000000E+03 0.  0.
 -1000006    1    1    2    0  502  0.27491705707E+02 -0.39544845800E+03  0.28063340960E+03  0.59865715347E+03  0.35000000000E+03 0.  0.
       21    1    1    2  504  505 -0.12604231322E+03  0.21243368236E+03 -0.61659257167E+02  0.25459104092E+03  0.00000000000E+00 0. -1.
       21    1    1    2  505  503 -0.13909943428E+03  0.25368498467E+02 -0.27442762060E+03  0.30871140613E+03  0.00000000000E+00 0. -1.
<scales pt_clust_1="13000.00000" pt_clust_2="13000.00000" pt_clust_3="279.25606" pt_clust_4="141.39382"></scales>
<clustering>
<clus scale="  141.394">  2  6  1 -1</clus>
<clus scale="  279.256">  2  5  1 -1</clus>
<clus scale="  459.756">  2  3  1 -1</clus>
<clus scale="  459.756">  1  3  2 -1</clus>
</clustering>
</event>
<event>
 4   0  0.3464723E-02  0.3957713E+03  0.7816531E-02  0.1045254E+00
       21   -1    0    0  501  502  0.00000000000E+00  0.00000000000E+00  0.99173122690E+03  0.99173122690E+03  0.00000000000E+00 0.  1.
       21   -1    0    0  502  503  0.00000000000E+00  0.00000000000E+00 -0.27006176647E+03  0.27006176647E+03  0.00000000000E+00 0.  1.
  1000006    1    1    2  501    0 -0.39838614011E+02  0.18041007010E+03  0.76734340125E+03  0.86339492933E+03  0.35000000000E+03 0.  0.
 -1000006    1    1    2    0  503  0.39838614011E+02 -0.18041007010E+03 -0.45673940814E+02  0.39839806404E+03  0.35000000000E+03 0.  0.
<scales pt_clust_1="13000.00000" pt_clust_2="13000.00000"></scales>
<clustering>
<clus scale="  395.771">  1  3  2 -1</clus>
<clus scale="  395.771">  1  3  2 -1</clus>
</clustering>
</event>
<event>
 6   2  0.3464723E-02  0.3591698E+03  0.7816531E-02  0.1058913E+00
        2   -1    0    0  501    0  0.00000000000E+00  0.00000000000E+00  0.22624474441E+04  0.22624474441E+04  0.00000000000E+00 0.  1.
       21   -1    0    0  504  503  0.00000000000E+00  0.00000000000E+00 -0.18264597340E+04  0.18264597340E+04  0.00000000000E+00 0. -1.
  1000006    1    1    2  501    0  0.88208511497E+02 -0.14207099018E+03  0.22188152221E+03  0.44687393933E+03  0.35000000000E+03 0.  0.
 -1000006    1    1    2    0  503  0.15777722517E+03  0.46069518186E+01  0.61619034786E+02  0.38885959193E+03  0.35000000000E+03 0.  0.
       21    1    1    2  504  502 -0.43449039799E+02  0.13799728620E+02 -0.15417369843E+04  0.15424108338E+04  0.00000000000E+00 0. -1.
        2    1    1    2  502    0 -0.20253669687E+03  0.12366430974E+03  0.16942241373E+04  0.17107628131E+04  0.00000000000E+00 0.  1.
<scales pt_clust_1="13000.00000" pt_clust_2="13000.00000" pt_clust_3="45.58784" pt_clust_4="238.59327"></scales>
<clustering>
<clus scale="   45.588">  2  5  1 -1</clus>
<clus scale="  238.593">  1  6  2 -1</clus>
<clus scale="  359.170">  1  3  2 -1</clus>
<clus scale="  359.170">  2  3  1 -1</clus>
</clustering>
</event>
<event>
 5   1  0.3464723E-02  0.3560757E+03  0.7816531E-02  0.1060149E+00
       21   -1    0    0  503  502  0.00000000000E+00  0.00000000000E+00  0.24817735732E+03  0.24817735732E+03  0.00000000000E+00 0. -1.
       21   -1    0    0  501  503  0.00000000000E+00  0.00000000000E+00 -0.77272117527E+03  0.77272117527E+03  0.00000000000E+00 0. -1.
  1000006    1    1    2  501    0 -0.17909153983E+01  0.68096935751E+02 -0.51891300145E+03  0.62961186704E+03  0.35000000000E+03 0.  0.
 -1000006    1    1    2    0  504 -0.28900769634E+02 -0.56016277112E+02  0.76925594182E+01  0.35571372374E+03  0.35000000000E+03 0.  0.
       21    1    1    2  504  502  0.30691685032E+02 -0.12080658639E+02 -0.13323375914E+02  0.35572941810E+02  0.00000000000E+00 0. -1.
<scales pt_clust_1="13000.00000" pt_clust_2="13000.00000" pt_clust_3="32.98366"></scales>
<clustering>
<clus scale="   32.984">  1  5  2 -1</clus>
<clus scale="  356.076">  2  3  1 -1</clus>
<clus scale="  356.076">  1  3  2 -1</clus>
</clustering>
</event>
<event>
 4   0  0.3464723E-02  0.4140983E+03  0.7816531E-02  0.1039004E+00
       21   -1    0    0  503  502  0.00000000000E+00  0.00000000000E+00  0.12505564164E+03  0.12505564164E+03  0.00000000000E+00 0. -1.
       21   -1    0    0  501  503  0.00000000000E+00  0.00000000000E+00 -0.16468806761E+04  0.16468806761E+04  0.00000000000E+00 0. -1.
  1000006    1    1    2  501    0 -0.16938696062E+03 -0.14242696281E+03 -0.11233919479E+04  0.11972831122E+04  0.35000000000E+03 0.  0.
 -1000006    1    1    2    0  502  0.16938696062E+03  0.14242696281E+03 -0.39843308652E+03  0.57465320551E+03  0.35000000000E+03 0.  0.
<scales pt_clust_1="13000.00000" pt_clust_2="13000.00000"></scales>
<clustering>
<clus scale="  414.098">  2  3  1 -1</clus>
<clus scale="  414.098">  1  3  2 -1</clus>
</clustering>
</event>
<event>
 6   2  0.3464723E-02  0.4140733E+03  0.7816531E-02  0.1039013E+00
       21   -1    0    0  501  502  0.00000000000E+00  0.00000000000E+00  0.53216022861E+03  0.53216022861E+03  0.00000000000E+00 0. -1.
       21   -1    0    0  504  503  0.00000000000E+00  0.00000000000E+00 -0.10963972925E+04  0.10963972925E+04  0.00000000000E+00 0. -1.
  1000006    1    1    2  501    0 -0.10263872557E+03  0.10783554123E+03  0.11895369119E+03  0.39851372948E+03  0.35000000000E+03 0.  0.
 -1000006    1    1    2    0  505  0.18716980457E+03 -0.29363338675E+03  0.14249799870E+02  0.49391918201E+03  0.35000000000E+03 0.  0.
       21    1    1    2  504  502 -0.10847646166E+03  0.15140122935E+03 -0.62780103674E+03  0.65484625426E+03  0.00000000000E+00 0. -1.
       21    1    1    2  505  503  0.23945382655E+02  0.34396616172E+02 -0.69639518199E+02  0.81278355357E+02  0.00000000000E+00 0. -1.
<scales pt_clust_1="13000.00000" pt_clust_2="13000.00000" pt_clust_3="196.62621" pt_clust_4="41.91072"></scales>
<clustering>
<clus scale="   41.911">  2  6  1 -1</clus>
<clus scale="  196.626">  2  5  1 -1</clus>
<clus scale="  414.073">  2  4  1 -1</clus>
<clus scale="  414.073">  1  3  2 -1</clus>
</clustering>
</event>
<event>
 5   1  0.3464723E-02  0.5977370E+03  0.7816531E-02  0.9910112E-01
       21   -1    0    0  501  502  0.00000000000E+00  0.00000000000E+00  0.41089094614E+03  0.41089094614E+03  0.00000000000E+00 0.  1.
       21   -1    0    0  502  503  0.00000000000E+00  0.00000000000E+00 -0.99419254079E+03  0.99419254079E+03  0.00000000000E+00 0. -1.
  1000006    1    1    2  501    0  0.19817698264E+03 -0.40740067592E+03 -0.23223222544E+03  0.61780355593E+03  0.35000000000E+03 0.  0.
 -1000006    1    1    2    0  504 -0.21675832628E+03  0.47274860803E+03 -0.27287141318E+03  0.68369161655E+03  0.35000000000E+03 0.  0.
       21    1    1    2  504  503  0.18581343646E+02 -0.65347932114E+02 -0.78197956030E+02  0.10358831445E+03  0.00000000000E+00 0. -1.
<scales pt_clust_1="13000.00000" pt_clust_2="13000.00000" pt_clust_3="67.93834"></scales>
<clustering>
<clus scale="   67.938">  2  5  1 -1</clus>
<clus scale="  597.737">  1  3  2 -1</clus>
<clus scale="  597.737">  1  3  2 -1</clus>
</clustering>
</event>
<event>
 5   1  0.3464723E-02  0.5286329E+03  0.7816531E-02  0.1006564E+00
       -2   -1    0    0    0  501  0.00000000000E+00  0.00000000000E+00  0.18440036183E+04  0.18440036183E+04  0.00000000000E+00 0.  1.
        2   -1    0    0  502    0  0.00000000000E+00  0.00000000000E+00 -0.25813055667E+03  0.25813055667E+03  0.00000000000E+00 0. -1.
  1000006    1    1    2  502    0  0.18748080335E+03 -0.47183279048E+03  0.41740923437E+03  0.74465139678E+03  0.35000000000E+03 0.  0.
 -1000006    1    1    2    0  503 -0.74183513108E+02  0.23399337412E+03  0.72936963097E+03  0.84542069488E+03  0.35000000000E+03 0.  0.
       21    1    1    2  503  501 -0.11329729025E+03  0.23783941635E+03  0.43909419631E+03  0.51206208333E+03  0.00000000000E+00 0.  1.
<scales pt_clust_1="13000.00000" pt_clust_2="13000.00000" pt_clust_3="263.44613"></scales>
<clustering>
<clus scale="  263.446">  1  5  2 -1</clus>
<clus scale="  881.092">  3  4 -1 -1</clus>
<clus scale="  528.633">  2  3  1 -1</clus>
</clustering>
</event>
<event>
 6   2  0.3464723E-02  0.4711340E+03  0.7816531E-02  0.1021601E+00
       21   -1    0    0  504  502  0.00000000000E+00  0.00000000000E+00  0.38768307764E+03  0.38768307764E+03  0.00000000000E+00 0.  1.
       21   -1    0    0  505  503  0.00000000000E+00  0.00000000000E+00 -0.14555641684E+04  0.14555641684E+04  0.00000000000E+00 0.  1.
  1000006    1    1    2  501    0 -0.59888370079E+02 -0.24920211348E+03 -0.28069506310E+03  0.51669916652E+03  0.35000000000E+03 0.  0.
 -1000006    1    1    2    0  503  0.13357039899E+03  0.36352723558E+03 -0.64563132129E+03  0.83026074550E+03  0.35000000000E+03 0.  0.
       21    1    1    2  504  501  0.16750834044E+02 -0.60802078887E+02  0.16264709968E+03  0.17444644529E+03  0.00000000000E+00 0.  1.
       21    1    1    2  505  502 -0.90432862951E+02 -0.53523043210E+02 -0.30420180603E+03  0.32184088872E+03  0.00000000000E+00 0.  1.
<scales pt_clust_1="13000.00000" pt_clust_2="13000.00000" pt_clust_3="63.06729" pt_clust_4="105.77939"></scales>
<clustering>
<clus scale="   63.067">  1  5  2 -1</clus>
<clus scale="  105.779">  2  6  1 -1</clus>
<clus scale="  471.134">  2  4  1 -1</clus>
<clus scale="  471.134">  1  3  2 -1</clus>
</clustering>
</event>
<event>
 6   2  0.3464723E-02  0.3913614E+03  0.7816531E-02  0.1046813E+00
        2   -1    0    0  501    0  0.00000000000E+00  0.00000000000E+00  0.94006618763E+03  0.94006618763E+03  0.00000000000E+00 0.  1.
       21   -1    0    0  504  503  0.00000000000E+00  0.00000000000E+00 -0.39972960015E+03  0.39972960015E+03  0.00000000000E+00 0. -1.
  1000006    1    1    2  501    0 -0.12011547520E+03 -0.23026070199E+03  0.41068014623E+03  0.59883712374E+03  0.35000000000E+03 0.  0.
 -1000006    1    1    2    0  503  0.15109428132E+03  0.64010690532E+02 -0.14716056415E+03  0.41362190705E+03  0.35000000000E+03 0.  0.
       21    1    1    2  504  502 -0.12828339965E+02  0.69136105182E+02  0.15709991652E+03  0.17211842179E+03  0.00000000000E+00 0.  1.
        2    1    1    2  502    0 -0.18150466156E+02  0.97113906276E+02  0.11971708887E+03  0.15521833520E+03  0.00000000000E+00 0.  1.
<scales pt_clust_1="13000.00000" pt_clust_2="13000.00000" pt_clust_3="36.99496" pt_clust_4="174.70460"></scales>
<clustering>
<clus scale="   36.995">  5  6 -1 -1</clus>
<clus scale="  174.705">  1  5  2 -1</clus>
<clus scale="  391.361">  1  3  2 -1</clus>
<clus scale="  391.361">  2  3  1 -1</clus>
</clustering>
</event>
<event>
 5   1  0.3464723E-02  0.3686025E+03  0.7816531E-02  0.1055229E+00
       21   -1    0    0  501  502  0.00000000000E+00  0.00000000000E+00  0.33480983292E+03  0.33480983292E+03  0.00000000000E+00 0. -1.
       21   -1    0    0  504  503  0.00000000000E+00  0.00000000000E+00 -0.10924676809E+04  0.10924676809E+04  0.00000000000E+00 0. -1.
  1000006    1    1    2  501    0  0.12470701107E+03  0.12262733759E+03  0.24020916108E+02  0.39200294252E+03  0.35000000000E+03 0.  0.
 -1000006    1    1    2    0  503  0.73283398842E+02 -0.73779017914E+02 -0.19450821376E+03  0.41369946247E+03  0.35000000000E+03 0.  0.
       21    1    1    2  504  502 -0.19799040991E+03 -0.48848319679E+02 -0.58717055031E+03  0.62157510882E+03  0.00000000000E+00 0. -1.
<scales pt_clust_1="13000.00000" pt_clust_2="13000.00000" pt_clust_3="203.92734"></scales>
<clustering>
<clus scale="  203.927">  2  5  1 -1</clus>
<clus scale="  368.602">  1  3  2 -1</clus>
<clus scale="  368.602">  1  3  2 -1</clus>
</clustering>
</event>
<event>
 4   0  0.3464723E-02  0.4230578E+03  0.7816531E-02  0.1036076E+00
       21   -1    0    0  501  502  0.00000000000E+00  0.00000000000E+00  0.28896280349E+03  0.28896280349E+03  0.00000000000E+00 0.  1.
       21   -1    0    0  502  503  0.00000000000E+00  0.00000000000E+00 -0.64075949532E+03  0.64075949532E+03  0.00000000000E+00 0.  1.
  1000006    1    1    2  501    0  0.52247666498E+02 -0.23183624184E+03 -0.90985846833E+02  0.43273119371E+03  0.35000000000E+03 0.  0.
 -1000006    1    1    2    0  503 -0.52247666498E+02  0.23183624184E+03 -0.26081084500E+03  0.49699110510E+03  0.35000000000E+03 0.  0.
<scales pt_clust_1="13000.00000" pt_clust_2="13000.00000"></scales>
<clustering>
<clus scale="  423.058">  1  3  2 -1</clus>
<clus scale="  423.058">  1  3  2 -1</clus>
</clustering>
</event>
<event>
 4   0  0.3464723E-02  0.4164284E+03  0.7816531E-02  0.1038235E+00
       21   -1    0    0  501  502  0.00000000000E+00  0.00000000000E+00  0.50941006385E+03  0.50941006385E+03  0.00000000000E+00 0.  1.
       21   -1    0    0  502  503  0.00000000000E+00  0.00000000000E+00 -0.40649181186E+03  0.40649181186E+03  0.00000000000E+00 0.  1.
  1000006    1    1    2  501    0 -0.85437735236E+02  0.20883721455E+03  0.23609080773E+03  0.47869766897E+03  0.35000000000E+03 0.  0.
 -1000006    1    1    2    0  503  0.85437735236E+02 -0.20883721455E+03 -0.13317255574E+03  0.43720420673E+03  0.35000000000E+03 0.  0.
<scales pt_clust_1="13000.00000" pt_clust_2="13000.00000"></scales>
<clustering>
<clus scale="  416.428">  1  3  2 -1</clus>
<clus scale="  416.428">  1  3  2 -1</clus>
</clustering>
</event>
<event>
 6   2  0.3464723E-02  0.3532638E+03  0.7816531E-02  0.1061283E+00
       21   -1    0    0  504  502  0.00000000000E+00  0.00000000000E+00  0.98354309722E+03  0.98354309722E+03  0.00000000000E+00 0.  1.
       21   -1    0    0  505  503  0.00000000000E+00  0.00000000000E+00 -0.30985433072E+03  0.30985433072E+03  0.00000000000E+00 0.  1.
  1000006    1    1    2  501    0 -0.66114555352E+02  0.33149294267E+02  0.20421459633E+03  0.41191456820E+03  0.35000000000E+03 0.  0.
 -1000006    1    1    2    0  503  0.36464531057E+02  0.30747652185E+02  0.42707653955E+01  0.35326097941E+03  0.35000000000E+03 0.  0.
       21    1    1    2  504  501  0.10222812006E+03 -0.11104222199E+03  0.36977762048E+03  0.39939510788E+03  0.00000000000E+00 0.  1.
       21    1    1    2  505  502 -0.72578095769E+02  0.47145275539E+02  0.95425784296E+02  0.12882677245E+03  0.00000000000E+00 0. -1.
<scales pt_clust_1="13000.00000" pt_clust_2="13000.00000" pt_clust_3="114.32423" pt_clust_4="86.54627"></scales>
<clustering>
<clus scale="   86.546">  1  6  2 -1</clus>
<clus scale="  114.324">  1  5  2 -1</clus>
<clus scale="  353.264">  1  3  2 -1</clus>
<clus scale="  353.264">  1  3  2 -1</clus>
</clustering>
</event>
<event>
 5   1  0.3464723E-02  0.3898712E+03  0.7816531E-02  0.1047344E+00
       21   -1    0    0  504  502  0.00000000000E+00  0.00000000000E+00  0.10292483190E+04  0.10292483190E+04  0.00000000000E+00 0.  1.
       21   -1    0    0  502  503  0.00000000000E+00  0.00000000000E+00 -0.77474405216E+03  0.77474405216E+03  0.00000000000E+00 0.  1.
  1000006    1    1    2  501    0 -0.64494142433E+02  0.17086329324E+03  0.53421885975E+03  0.66426165741E+03  0.35000000000E+03 0.  0.
 -1000006    1    1    2    0  503  0.22650732649E+00 -0.17173761623E+03 -0.65323006869E+03  0.76072556338E+03  0.35000000000E+03 0.  0.
       21    1    1    2  504  501  0.64267635107E+02  0.87432299189E+00  0.37351547581E+03  0.37900515040E+03  0.00000000000E+00 0.  1.
<scales pt_clust_1="13000.00000" pt_clust_2="13000.00000" pt_clust_3="64.27358"></scales>
<clustering>
<clus scale="   64.274">  1  5  2 -1</clus>
<clus scale="  389.871">  2  4  1 -1</clus>
<clus scale="  389.871">  1  3  2 -1</clus>
</clustering>
</event>
<event>
 5   1  0.3464723E-02  0.3872536E+03  0.7816531E-02  0.1048285E+00
       21   -1    0    0  501  502  0.00000000000E+00  0.00000000000E+00  0.10798697511E+04  0.10798697511E+04  0.00000000000E+00 0.  1.
       21   -1    0    0  504  503  0.00000000000E+00  0.00000000000E+00 -0.27468958050E+03  0.27468958050E+03  0.00000000000E+00 0. -1.
  1000006    1    1    2  501    0 -0.88643032634E+02 -0.10743904918E+03  0.24888236520E+03  0.45148994256E+03  0.35000000000E+03 0.  0.
 -1000006    1    1    2    0  503 -0.42976889061E+02  0.20881169025E+03  0.10629168441E+03  0.42337602336E+03  0.35000000000E+03 0.  0.
       21    1    1    2  504  502  0.13161992169E+03 -0.10137264107E+03  0.45000612104E+03  0.47969336572E+03  0.00000000000E+00 0.  1.
<scales pt_clust_1="13000.00000" pt_clust_2="13000.00000" pt_clust_3="166.13313"></scales>
<clustering>
<clus scale="  166.133">  1  5  2 -1</clus>
<clus scale="  387.254">  1  3  2 -1</clus>
<clus scale="  387.254">  1  3  2 -1</clus>
</clustering>
</event>
<event>
 4   0  0.3464723E-02  0.4333428E+03  0.7816531E-02  0.1032809E+00
       21   -1    0    0  503  502  0.00000000000E+00  0.00000000000E+00  0.15733865042E+04  0.15733865042E+04  0.00000000000E+00 0.  1.
       21   -1    0    0  501  503  0.00000000000E+00  0.00000000000E+00 -0.11982407596E+03  0.11982407596E+03  0.00000000000E+00 0.  1.
  1000006    1    1    2  501    0 -0.17954746962E+03 -0.18179305205E+03  0.67361276195E+03  0.80096202200E+03  0.35000000000E+03 0.  0.
 -1000006    1    1    2    0  502  0.17954746962E+03  0.18179305205E+03  0.77994966633E+03  0.89224855821E+03  0.35000000000E+03 0.  0.
<scales pt_clust_1="13000.00000" pt_clust_2="13000.00000"></scales>
<clustering>
<clus scale="  433.343">  2  3  1 -1</clus>
<clus scale="  433.343">  1  3  2 -1</clus>
</clustering>
</event>
<event>
 6   2  0.3464723E-02  0.4000456E+03  0.7816531E-02  0.1043764E+00
       21   -1    0    0  505  502  0.00000000000E+00  0.00000000000E+00  0.42961228344E+03  0.42961228344E+03  0.00000000000E+00 0.  1.
       21   -1    0    0  501  503  0.00000000000E+00  0.00000000000E+00 -0.74543489971E+03  0.74543489971E+03  0.00000000000E+00 0. -1.
  1000006    1    1    2  501    0 -0.96503951938E+02 -0.12972566683E+03 -0.15225833301E+03  0.41451702178E+03  0.35000000000E+03 0.  0.
 -1000006    1    1    2    0  502  0.13375719845E+03  0.20698338234E+03 -0.70245110446E+02  0.43378276158E+03  0.35000000000E+03 0.  0.
       21    1    1    2  504  503  0.44655228386E+02 -0.38704070854E+01 -0.18076740108E+03  0.18624157100E+03  0.00000000000E+00 0.  1.
       21    1    1    2  505  504 -0.81908474899E+02 -0.73387308421E+02  0.87448228266E+02  0.14050582879E+03  0.00000000000E+00 0.  1.
<scales pt_clust_1="13000.00000" pt_clust_2="13000.00000" pt_clust_3="44.82264" pt_clust_4="108.53864"></scales>
<clustering>
<clus scale="   44.823">  2  5  1 -1</clus>
<clus scale="  108.539">  1  6  2 -1</clus>
<clus scale="  400.046">  1  4  2 -1</clus>
<clus scale="  400.046">  1  3  2 -1</clus>
</clustering>
</event>
<event>
 5   1  0.3464723E-02  0.3540299E+03  0.7816531E-02  0.1060973E+00
       21   -1    0    0  504  502  0.00000000000E+00  0.00000000000E+00  0.11759782741E+04  0.11759782741E+04  0.00000000000E+00 0. -1.
       21   -1    0    0  501  503  0.00000000000E+00  0.00000000000E+00 -0.29046306196E+03  0.29046306196E+03  0.00000000000E+00 0. -1.
  1000006    1    1    2  501    0 -0.88959783790E+02  0.12439272852E+03  0.11336776390E+03  0.39842144010E+03  0.35000000000E+03 0.  0.
 -1000006    1    1    2    0  502 -0.58879044578E+02  0.10447261913E+03  0.69086180587E+03  0.78369082223E+03  0.35000000000E+03 0.  0.
       21    1    1    2  504  503  0.14783882837E+03 -0.22886534764E+03  0.81285642405E+02  0.28432907376E+03  0.00000000000E+00 0. -1.
<scales pt_clust_1="13000.00000" pt_clust_2="13000.00000" pt_clust_3="272.46223"></scales>
<clustering>
<clus scale="  272.462">  2  5  1 -1</clus>
<clus scale="  354.030">  2  3  1 -1</clus>
<clus scale="  354.030">  1  3  2 -1</clus>
</clustering>
</event>
<event>
 6   2  0.3464723E-02  0.3600405E+03  0.7816531E-02  0.1058568E+00
       21   -1    0    0  504  502  0.00000000000E+00  0.00000000000E+00  0.15202069126E+04  0.15202069126E+04  0.00000000000E+00 0.  1.
       21   -1    0    0  505  503  0.00000000000E+00  0.00000000000E+00 -0.26881442971E+03  0.26881442971E+03  0.00000000000E+00 0.  1.
  1000006    1    1    2  501    0 -0.53149208251E+01 -0.10792888914E+03  0.14321506866E+03  0.39330325372E+03  0.35000000000E+03 0.  0.
 -1000006    1    1    2    0  502  0.70163638601E+02  0.78414402918E+02  0.11702651174E+04  0.12260066067E+04  0.35000000000E+03 0.  0.
       21    1    1    2  504  503 -0.29138050022E+02 -0.15663038976E+02  0.40361691762E+02  0.52186424584E+02  0.00000000000E+00 0.  1.
       21    1    1    2  505  501 -0.35710667754E+02  0.45177525201E+02 -0.10244939491E+03  0.11752505729E+03  0.00000000000E+00 0.  1.
<scales pt_clust_1="13000.00000" pt_clust_2="13000.00000" pt_clust_3="33.08106" pt_clust_4="57.61679"></scales>
<clustering>
<clus scale="   33.081">  1  5  2 -1</clus>
<clus scale="   57.617">  2  6  1 -1</clus>
<clus scale="  360.041">  2  3  1 -1</clus>
<clus scale="  360.041">  1  3  2 -1</clus>
</clustering>
</event>
<event>
 4   0  0.3464723E-02  0.5203067E+03  0.7816531E-02  0.1008610E+00
       21   -1    0    0  503  502  0.00000000000E+00  0.00000000000E+00  0.73929734909E+03  0.73929734909E+03  0.00000000000E+00 0.  1.
       21   -1    0    0  501  503  0.00000000000E+00  0.00000000000E+00 -0.38903717484E+03  0.38903717484E+03  0.00000000000E+00 0. -1.
  1000006    1    1    2  501    0  0.22070921948E+03 -0.31544656132E+03  0.38394167093E+02  0.52172138607E+03  0.35000000000E+03 0.  0.
 -1000006    1    1    2    0  502 -0.22070921948E+03  0.31544656132E+03  0.31186600716E+03  0.60661313787E+03  0.35000000000E+03 0.  0.
<scales pt_clust_1="13000.00000" pt_clust_2="13000.00000"></scales>
<clustering>
<clus scale="  520.307">  2  3  1 -1</clus>
<clus scale="  520.307">  1  3  2 -1</clus>
</clustering>
</event>
<event>
 6   2  0.3464723E-02  0.5795590E+03  0.7816531E-02  0.9948746E-01
        2   -1    0    0  503    0  0.00000000000E+00  0.00000000000E+00  0.22538740621E+04  0.22538740621E+04  0.00000000000E+00 0.  1.
       21   -1    0    0  504  503  0.00000000000E+00  0.00000000000E+00 -0.63111942463E+03  0.63111942463E+03  0.00000000000E+00 0.  1.
  1000006    1    1    2  501    0 -0.11107657510E+03 -0.42979201569E+03 -0.60119265086E+02  0.56848351632E+03  0.35000000000E+03 0.  0.
 -1000006    1    1    2    0  502  0.18098540870E+03  0.45014500272E+03  0.33713625565E+02  0.59918515518E+03  0.35000000000E+03 0.  0.
       21    1    1    2  504  501 -0.30671415892E+02  0.43661896028E+01 -0.26654296290E+02  0.40868702881E+02  0.00000000000E+00 0.  1.
        2    1    1    2  502    0 -0.39237417714E+02 -0.24719176633E+02  0.16758145733E+04  0.16764561123E+04  0.00000000000E+00 0.  1.
<scales pt_clust_1="13000.00000" pt_clust_2="13000.00000" pt_clust_3="30.98063" pt_clust_4="46.38738"></scales>
<clustering>
<clus scale="   30.981">  2  5  1 -1</clus>
<clus scale="   46.387">  1  6  2 -1</clus>
<clus scale="  579.559">  1  4  2 -1</clus>
<clus scale="  579.559">  2  3  1 -1</clus>
</clustering>
</event>
<event>
 6   2  0.3464723E-02  0.5170421E+03  0.7816531E-02  0.1009424E+00
       21   -1    0    0  504  502  0.00000000000E+00  0.00000000000E+00  0.48274308726E+03  0.48274308726E+03  0.00000000000E+00 0. -1.
       21   -1    0    0  501  503  0.00000000000E+00  0.00000000000E+00 -0.16430119730E+04  0.16430119730E+04  0.00000000000E+00 0. -1.
  1000006    1    1    2  501    0 -0.14746709157E+03  0.34433364901E+03 -0.12231718709E+04  0.13262585082E+04  0.35000000000E+03 0.  0.
 -1000006    1    1    2    0  502  0.24585546800E+03 -0.30533806720E+03 -0.16883143657E+02  0.52579586054E+03  0.35000000000E+03 0.  0.
       21    1    1    2  504  505 -0.46193089813E+02 -0.19006526109E+02  0.16466379912E+03  0.17207328765E+03  0.00000000000E+00 0. -1.
       21    1    1    2  505  503 -0.52195286617E+02 -0.19989055702E+02 -0.84877670353E+02  0.10162740387E+03  0.00000000000E+00 0. -1.
<scales pt_clust_1="13000.00000" pt_clust_2="13000.00000" pt_clust_3="49.95047" pt_clust_4="57.22223"></scales>
<clustering>
<clus scale="   49.950">  1  5  2 -1</clus>
<clus scale="   57.222">  2  6  1 -1</clus>
<clus scale="  517.042">  2  3  1 -1</clus>
<clus scale="  517.042">  1  3  2 -1</clus>
</clustering>
</event>
<event>
 5   1  0.3464723E-02  0.3534321E+03  0.7816531E-02  0.1061215E+00
        2   -1    0    0  501    0  0.00000000000E+00  0.00000000000E+00  0.77438603514E+03  0.77438603514E+03  0.00000000000E+00 0.  1.
       21   -1    0    0  502  503  0.00000000000E+00  0.00000000000E+00 -0.30860651451E+03  0.30860651451E+03  0.00000000000E+00 0.  1.
  1000006    1    1    2  501    0 -0.67996250658E+02  0.73974053706E+01  0.30413884657E+03  0.46869889023E+03  0.35000000000E+03 0.  0.
 -1000006    1    1    2    0  503  0.71787195443E+01  0.61927848413E+02 -0.72340411915E+02  0.36279433240E+03  0.35000000000E+03 0.  0.
        2    1    1    2  502    0  0.60817531114E+02 -0.69325253784E+02  0.23398108597E+03  0.25149932703E+03  0.00000000000E+00 0.  1.
<scales pt_clust_1="13000.00000" pt_clust_2="13000.00000" pt_clust_3="92.22127"></scales>
<clustering>
<clus scale="   92.221">  1  5  2 -1</clus>
<clus scale="  353.432">  2  4  1 -1</clus>
<clus scale="  353.432">  2  3  1 -1</clus>
</clustering>
</event>
<event>
 5   1  0.3464723E-02  0.3673779E+03  0.7816531E-02  0.1055700E+00
       21   -1    0    0  504  502  0.00000000000E+00  0.00000000000E+00  0.46677974839E+03  0.46677974839E+03  0.00000000000E+00 0. -1.
       21   -1    0    0  501  503  0.00000000000E+00  0.00000000000E+00 -0.45302736651E+03  0.45302736651E+03  0.00000000000E+00 0. -1.
  1000006    1    1    2  501    0  0.84229604060E+02  0.10425021021E+03 -0.20341807444E+03  0.42642894547E+03  0.35000000000E+03 0.  0.
 -1000006    1    1    2    0  502 -0.58856569473E+02 -0.26081701380E+02  0.14598098248E+03  0.38464892846E+03  0.35000000000E+03 0.  0.
       21    1    1    2  504  503 -0.25373034587E+02 -0.78168508829E+02  0.71189473839E+02  0.10872924097E+03  0.00000000000E+00 0. -1.
<scales pt_clust_1="13000.00000" pt_clust_2="13000.00000" pt_clust_3="82.18337"></scales>
<clustering>
<clus scale="   82.183">  1  5  2 -1</clus>
<clus scale="  367.378">  2  3  1 -1</clus>
<clus scale="  367.378">  1  3  2 -1</clus>
</clustering>
</event>
<event>
 4   0  0.3464723E-02  0.4432134E+03  0.7816531E-02  0.1029765E+00
       -2   -1    0    0    0  501  0.00000000000E+00  0.00000000000E+00  0.33533936147E+03  0.33533936147E+03  0.00000000000E+00 0.  1.
        2   -1    0    0  502    0  0.00000000000E+00  0.00000000000E+00 -0.61053194153E+03  0.61053194153E+03  0.00000000000E+00 0. -1.
  1000006    1    1    2  502    0 -0.18752268686E+03 -0.19690941387E+03 -0.23280450205E+03  0.50063560753E+03  0.35000000000E+03 0.  0.
 -1000006    1    1    2    0  501  0.18752268686E+03  0.19690941387E+03 -0.42388078007E+02  0.44523569546E+03  0.35000000000E+03 0.  0.
<scales pt_clust_1="13000.00000" pt_clust_2="13000.00000"></scales>
<clustering>
<clus scale="  671.894">  3  4 -1 -1</clus>
<clus scale="  443.213">  2  3  1 -1</clus>
</clustering>
</event>
<event>
 4   0  0.3464723E-02  0.1563579E+04  0.7816531E-02  0.8843241E-01
       21   -1    0    0  503  502  0.00000000000E+00  0.00000000000E+00  0.27031370203E+04  0.27031370203E+04  0.00000000000E+00 0.  1.
       21   -1    0    0  501  503  0.00000000000E+00  0.00000000000E+00 -0.90444030223E+03  0.90444030223E+03  0.00000000000E+00 0. -1.
  1000006    1    1    2  501    0  0.31429530701E+03  0.14911398504E+04  0.89148426247E+03  0.17998677128E+04  0.35000000000E+03 0.  0.
 -1000006    1    1    2    0  502 -0.31429530701E+03 -0.14911398504E+04  0.90721245559E+03  0.18077096097E+04  0.35000000000E+03 0.  0.
<scales pt_clust_1="13000.00000" pt_clust_2="13000.00000"></scales>
<clustering>
<clus scale=" 1563.579">  2  3  1 -1</clus>
<clus scale=" 1563.579">  1  3  2 -1</clus>
</clustering>
</event>
<event>
 4   0  0.3464723E-02  0.3875816E+03  0.7816531E-02  0.1048167E+00
       21   -1    0    0  501  502  0.00000000000E+00  0.00000000000E+00  0.30358648243E+03  0.30358648243E+03  0.00000000000E+00 0.  1.
       21   -1    0    0  502  503  0.00000000000E+00  0.00000000000E+00 -0.53363840929E+03  0.53363840929E+03  0.00000000000E+00 0.  1.
  1000006    1    1    2  501    0 -0.14123965501E+03  0.88152270628E+02 -0.21166988947E+01  0.38758733645E+03  0.35000000000E+03 0.  0.
 -1000006    1    1    2    0  503  0.14123965501E+03 -0.88152270628E+02 -0.22793522797E+03  0.44963755527E+03  0.35000000000E+03 0.  0.
<scales pt_clust_1="13000.00000" pt_clust_2="13000.00000"></scales>
<clustering>
<clus scale="  387.582">  1  3  2 -1</clus>
<clus scale="  387.582">  1  3  2 -1</clus>
</clustering>
</event>
<event>
 4   0  0.3464723E-02  0.3953637E+03  0.7816531E-02  0.1045397E+00
       21   -1    0    0  503  502  0.00000000000E+00  0.00000000000E+00  0.25438066671E+04  0.25438066671E+04  0.00000000000E+00 0. -1.
       21   -1    0    0  501  503  0.00000000000E+00  0.00000000000E+00 -0.63547162918E+02  0.63547162918E+02  0.00000000000E+00 0. -1.
  1000006    1    1    2  501    0 -0.17849270287E+03 -0.44190541550E+02  0.10031998478E+04  0.10782960557E+04  0.35000000000E+03 0.  0.
 -1000006    1    1    2    0  502  0.17849270287E+03  0.44190541550E+02  0.14770596564E+04  0.15290577744E+04  0.35000000000E+03 0.  0.
<scales pt_clust_1="13000.00000" pt_clust_2="13000.00000"></scales>
<clustering>
<clus scale="  395.364">  2  3  1 -1</clus>
<clus scale="  395.364">  1  3  2 -1</clus>
</clustering>
</event>
<event>
 4   0  0.3464723E-02  0.4964612E+03  0.7816531E-02  0.1014707E+00
       21   -1    0    0  501  502  0.00000000000E+00  0.00000000000E+00  0.57161073954E+03  0.57161073954E+03  0.00000000000E+00 0.  1.
       21   -1    0    0  502  503  0.00000000000E+00  0.00000000000E+00 -0.43840527276E+03  0.43840527276E+03  0.00000000000E+00 0.  1.
  1000006    1    1    2  501    0 -0.23263753015E+03  0.26429812347E+03  0.13138262580E+03  0.51355147051E+03  0.35000000000E+03 0.  0.
 -1000006    1    1    2    0  503  0.23263753015E+03 -0.26429812347E+03  0.18228409816E+01  0.49646454179E+03  0.35000000000E+03 0.  0.
<scales pt_clust_1="13000.00000" pt_clust_2="13000.00000"></scales>
<clustering>
<clus scale="  496.461">  1  3  2 -1</clus>
<clus scale="  496.461">  1  3  2 -1</clus>
</clustering>
</event>
<event>
 5   1  0.3464723E-02  0.3785164E+03  0.7816531E-02  0.1051483E+00
       21   -1    0    0  501  502  0.00000000000E+00  0.00000000000E+00  0.35169650155E+03  0.35169650155E+03  0.00000000000E+00 0. -1.
       21   -1    0    0  504  503  0.00000000000E+00  0.00000000000E+00 -0.49083545740E+03  0.49083545740E+03  0.00000000000E+00 0. -1.
  1000006    1    1    2  501    0  0.11804210516E+03  0.41387142236E+02  0.17603787505E+02  0.37209773913E+03  0.35000000000E+03 0.  0.
 -1000006    1    1    2    0  503 -0.15886610899E+03 -0.66238721451E+01 -0.16071540629E+03  0.41666744303E+03  0.35000000000E+03 0.  0.
       21    1    1    2  504  502  0.40824003821E+02 -0.34763270091E+02  0.39726629366E+01  0.53766776788E+02  0.00000000000E+00 0.  1.
<scales pt_clust_1="13000.00000" pt_clust_2="13000.00000" pt_clust_3="53.61981"></scales>
<clustering>
<clus scale="   53.620">  1  5  2 -1</clus>
<clus scale="  378.516">  1  3  2 -1</clus>
<clus scale="  378.516">  1  3  2 -1</clus>
</clustering>
</event>
<event>
 6   2  0.3464723E-02  0.4391734E+03  0.7816531E-02  0.1031001E+00
        2   -1    0    0  501    0  0.00000000000E+00  0.00000000000E+00  0.11360722090E+04  0.11360722090E+04  0.00000000000E+00 0. -1.
       21   -1    0    0  504  503  0.00000000000E+00  0.00000000000E+00 -0.26867615474E+04  0.26867615474E+04  0.00000000000E+00 0. -1.
  1000006    1    1    2  501    0  0.75604292942E+02 -0.32168524136E+03 -0.77412900772E+03  0.91157727276E+03  0.35000000000E+03 0.  0.
 -1000006    1    1    2    0  503 -0.60172744120E+02  0.23356318123E+03 -0.17512608886E+04  0.18021063283E+04  0.35000000000E+03 0.  0.
       21    1    1    2  504  502  0.85623565963E+01  0.57851648856E+02 -0.54074418215E+02  0.79650297747E+02  0.00000000000E+00 0. -1.
        2    1    1    2  502    0 -0.23993905418E+02  0.30270411274E+02  0.10287749761E+04  0.10294998576E+04  0.00000000000E+00 0. -1.
<scales pt_clust_1="13000.00000" pt_clust_2="13000.00000" pt_clust_3="61.73463" pt_clust_4="38.62648"></scales>
<clustering>
<clus scale="   38.626">  1  6  2 -1</clus>
<clus scale="   61.735">  1  5  2 -1</clus>
<clus scale="  439.173">  2  4  1 -1</clus>
<clus scale="  439.173">  2  3  1 -1</clus>
</clustering>
</event>
<event>
 4   0  0.3464723E-02  0.5371654E+03  0.7816531E-02  0.1004509E+00
        1   -1    0    0  502    0  0.00000000000E+00  0.00000000000E+00  0.33933181636E+03  0.33933181636E+03  0.00000000000E+00 0. -1.
       -1   -1    0    0    0  501  0.00000000000E+00  0.00000000000E+00 -0.88906678169E+03  0.88906678169E+03  0.00000000000E+00 0.  1.
  1000006    1    1    2  502    0  0.39921111643E+03  0.81713745235E+02 -0.14667561643E+03  0.55683066375E+03  0.35000000000E+03 0.  0.
 -1000006    1    1    2    0  501 -0.39921111643E+03 -0.81713745235E+02 -0.40305934890E+03  0.67156793430E+03  0.35000000000E+03 0.  0.
<scales pt_clust_1="13000.00000" pt_clust_2="13000.00000"></scales>
<clustering>
<clus scale="  916.108">  3  4 -1 -1</clus>
<clus scale="  537.165">  1  3  2 -1</clus>
</clustering>
</event>
<event>
 4   0  0.3464723E-02  0.3734155E+03  0.7816531E-02  0.1053395E+00
       21   -1    0    0  503  502  0.00000000000E+00  0.00000000000E+00  0.28463748979E+03  0.28463748979E+03  0.00000000000E+00 0.  1.
       21   -1    0    0  501  503  0.00000000000E+00  0.00000000000E+00 -0.10147137351E+04  0.10147137351E+04  0.00000000000E+00 0.  1.
  1000006    1    1    2  501    0  0.12963889512E+03 -0.11526443742E+02 -0.83227205433E+03  0.91220385576E+03  0.35000000000E+03 0.  0.
 -1000006    1    1    2    0  502 -0.12963889512E+03  0.11526443742E+02  0.10219580904E+03  0.38714736912E+03  0.35000000000E+03 0.  0.
<scales pt_clust_1="13000.00000" pt_clust_2="13000.00000"></scales>
<clustering>
<clus scale="  373.415">  2  3  1 -1</clus>
<clus scale="  373.415">  1  3  2 -1</clus>
</clustering>
</event>
<event>
 5   1  0.3464723E-02  0.3975233E+03  0.7816531E-02  0.1044641E+00
       21   -1    0    0  504  502  0.00000000000E+00  0.00000000000E+00  0.27543862605E+03  0.27543862605E+03  0.00000000000E+00 0. -1.
       21   -1    0    0  501  503  0.00000000000E+00  0.00000000000E+00 -0.97791878222E+03  0.97791878222E+03  0.00000000000E+00 0. -1.
  1000006    1    1    2  501    0 -0.20435502298E+03 -0.32751411273E+02 -0.59985826717E+03  0.72468170327E+03  0.35000000000E+03 0.  0.
 -1000006    1    1    2    0  502  0.15222170036E+03  0.19244484145E+02 -0.18942369022E+03  0.42652447837E+03  0.35000000000E+03 0.  0.
       21    1    1    2  504  503  0.52133322620E+02  0.13506927128E+02  0.86801801221E+02  0.10215122664E+03  0.00000000000E+00 0. -1.
<scales pt_clust_1="13000.00000" pt_clust_2="13000.00000" pt_clust_3="53.85462"></scales>
<clustering>
<clus scale="   53.855">  1  5  2 -1</clus>
<clus scale="  397.523">  2  3  1 -1</clus>
<clus scale="  397.523">  1  3  2 -1</clus>
</clustering>
</event>
<event>
 5   1  0.3464723E-02  0.4108365E+03  0.7816531E-02  0.1040091E+00
       21   -1    0    0  504  502  0.00000000000E+00  0.00000000000E+00  0.51183831295E+03  0.51183831295E+03  0.00000000000E+00 0. -1.
       21   -1    0    0  501  503  0.00000000000E+00  0.00000000000E+00 -0.45809407797E+03  0.45809407797E+03  0.00000000000E+00 0.  1.
  1000006    1    1    2  501    0 -0.15515941303E+03 -0.18588522427E+03 -0.12786197781E+03  0.44438321911E+03  0.35000000000E+03 0.  0.
 -1000006    1    1    2    0  502  0.13324920258E+03  0.11469184895E+03  0.80327552048E+02  0.39982757011E+03  0.35000000000E+03 0.  0.
       21    1    1    2  504  503  0.21910210450E+02  0.71193375323E+02  0.10127866074E+03  0.12572160170E+03  0.00000000000E+00 0. -1.
<scales pt_clust_1="13000.00000" pt_clust_2="13000.00000" pt_clust_3="74.48862"></scales>
<clustering>
<clus scale="   74.489">  1  5  2 -1</clus>
<clus scale="  410.837">  2  3  1 -1</clus>
<clus scale="  410.837">  1  3  2 -1</clus>
</clustering>
</event>
<event>
 4   0  0.3464723E-02  0.4000807E+03  0.7816531E-02  0.1043752E+00
       21   -1    0    0  501  502  0.00000000000E+00  0.00000000000E+00  0.70096494850E+03  0.70096494850E+03  0.00000000000E+00 0.  1.
       21   -1    0    0  502  503  0.00000000000E+00  0.00000000000E+00 -0.34520429512E+03  0.34520429512E+03  0.00000000000E+00 0.  1.
  1000006    1    1    2  501    0  0.11178883011E+03 -0.15832810441E+03  0.48221985075E+03  0.62657841938E+03  0.35000000000E+03 0.  0.
 -1000006    1    1    2    0  503 -0.11178883011E+03  0.15832810441E+03 -0.12645919736E+03  0.41959082423E+03  0.35000000000E+03 0.  0.
<scales pt_clust_1="13000.00000" pt_clust_2="13000.00000"></scales>
<clustering>
<clus scale="  400.081">  1  3  2 -1</clus>
<clus scale="  400.081">  1  3  2 -1</clus>
</clustering>
</event>
<event>
 6   2  0.3464723E-02  0.7526855E+03  0.7816531E-02  0.9631147E-01
       21   -1    0    0  504  502  0.00000000000E+00  0.00000000000E+00  0.13883250294E+04  0.13883250294E+04  0.00000000000E+00 0.  1.
       21   -1    0    0  505  503  0.00000000000E+00  0.00000000000E+00 -0.75162386054E+03  0.75162386054E+03  0.00000000000E+00 0. -1.
  1000006    1    1    2  501    0  0.47611155100E+03  0.44855012187E+03  0.44796962523E+03  0.86663499004E+03  0.35000000000E+03 0.  0.
 -1000006    1    1    2    0  503 -0.54549183881E+03 -0.36196524290E+03 -0.21845636350E+03  0.77382385982E+03  0.35000000000E+03 0.  0.
       21    1    1    2  504  501  0.76928393117E+02 -0.35908635977E+02  0.43361014709E+03  0.44184292171E+03  0.00000000000E+00 0. -1.
       21    1    1    2  505  502 -0.75481053028E+01 -0.50676242996E+02 -0.26422239918E+02  0.57647118402E+02  0.00000000000E+00 0.  1.
<scales pt_clust_1="13000.00000" pt_clust_2="13000.00000" pt_clust_3="84.98160" pt_clust_4="51.23530"></scales>
<clustering>
<clus scale="   51.235">  2  6  1 -1</clus>
<clus scale="   84.982">  1  5  2 -1</clus>
<clus scale="  752.685">  1  3  2 -1</clus>
<clus scale="  752.685">  1  3  2 -1</clus>
</clustering>
</event>
<event>
 6   2  0.3464723E-02  0.3840206E+03  0.7816531E-02  0.1049458E+00
       21   -1    0    0  504  502  0.00000000000E+00  0.00000000000E+00  0.17456965434E+04  0.17456965434E+04  0.00000000000E+00 0.  1.
       21   -1    0    0  505  503  0.00000000000E+00  0.00000000000E+00 -0.30558219155E+03  0.30558219155E+03  0.00000000000E+00 0.  1.
  1000006    1    1    2  501    0 -0.12703388655E+03 -0.91504946925E+02  0.35679052666E+03  0.52374635422E+03  0.35000000000E+03 0.  0.
 -1000006    1    1    2    0  503  0.14051223371E+03  0.74403187888E+02 -0.50729498786E+02  0.38775379332E+03  0.35000000000E+03 0.  0.
       21    1    1    2  504  501 -0.44156753722E+02  0.18744900983E+02  0.10340586789E+04  0.10351707790E+04  0.00000000000E+00 0.  1.
       21    1    1    2  505  502  0.30678406564E+02 -0.16431419465E+01  0.99994645073E+02  0.10460780845E+03  0.00000000000E+00 0. -1.
<scales pt_clust_1="13000.00000" pt_clust_2="13000.00000" pt_clust_3="30.50948" pt_clust_4="30.72238"></scales>
<clustering>
<clus scale="   30.722">  1  6  2 -1</clus>
<clus scale="   30.509">  1  5  2 -1</clus>
<clus scale="  384.021">  1  3  2 -1</clus>
<clus scale="  384.021">  1  3  2 -1</clus>
</clustering>
</event>
<event>
 4   0  0.3464723E-02  0.4043165E+03  0.7816531E-02  0.1042295E+00
       21   -1    0    0  501  502  0.00000000000E+00  0.00000000000E+00  0.26689329439E+04  0.26689329439E+04  0.00000000000E+00 0. -1.
       21   -1    0    0  502  503  0.00000000000E+00  0.00000000000E+00 -0.69412412417E+02  0.69412412417E+02  0.00000000000E+00 0. -1.
  1000006    1    1    2  501    0 -0.65465980096E+02 -0.19153594235E+03  0.17692782391E+04  0.18148876823E+04  0.35000000000E+03 0.  0.
 -1000006    1    1    2    0  503  0.65465980096E+02  0.19153594235E+03  0.83024229233E+03  0.92345767404E+03  0.35000000000E+03 0.  0.
<scales pt_clust_1="13000.00000" pt_clust_2="13000.00000"></scales>
<clustering>
<clus scale="  404.316">  1  3  2 -1</clus>
<clus scale="  404.316">  1  3  2 -1</clus>
</clustering>
</event>
<event>
 5   1  0.3464723E-02  0.4021778E+03  0.7816531E-02  0.1043028E+00
        2   -1    0    0  503    0  0.00000000000E+00  0.00000000000E+00  0.25886877068E+04  0.25886877068E+04  0.00000000000E+00 0. -1.
       21   -1    0    0  501  503  0.00000000000E+00  0.00000000000E+00 -0.32544639126E+03  0.32544639126E+03  0.00000000000E+00 0.  1.
  1000006    1    1    2  501    0 -0.17905776785E+03  0.30802666904E+02 -0.38641974671E+02  0.39623691237E+03  0.35000000000E+03 0.  0.
 -1000006    1    1    2    0  502  0.20148439586E+03 -0.16895587200E+03  0.34861259142E+03  0.55961843015E+03  0.35000000000E+03 0.  0.
        2    1    1    2  502    0 -0.22426628015E+02  0.13815320510E+03  0.19532706988E+04  0.19582787556E+04  0.00000000000E+00 0. -1.
<scales pt_clust_1="13000.00000" pt_clust_2="13000.00000" pt_clust_3="139.96164"></scales>
<clustering>
<clus scale="  139.962">  1  5  2 -1</clus>
<clus scale="  402.178">  2  3  1 -1</clus>
<clus scale="  402.178">  2  3  1 -1</clus>
</clustering>
</event>
<event>
 6   2  0.3464723E-02  0.3614942E+03  0.7816531E-02  0.1057994E+00
       21   -1    0    0  505  502  0.00000000000E+00  0.00000000000E+00  0.71545918776E+03  0.71545918776E+03  0.00000000000E+00 0.  1.
       21   -1    0    0  504  503  0.00000000000E+00  0.00000000000E+00 -0.35662498191E+03  0.35662498191E+03  0.00000000000E+00 0.  1.
  1000006    1    1    2  501    0  0.42414854773E+02  0.10323133811E+03  0.46463607141E+02  0.37028988085E+03  0.35000000000E+03 0.  0.
 -1000006    1    1    2    0  502 -0.52193563397E+02 -0.57720974946E+02  0.36597675708E+03  0.51234252774E+03  0.35000000000E+03 0.  0.
       21    1    1    2  504  501 -0.43855759193E+02 -0.10295827428E+02 -0.10039725994E+03  0.11004063559E+03  0.00000000000E+00 0.  1.
       21    1    1    2  505  503  0.53634467818E+02 -0.35214535736E+02  0.46791101566E+02  0.79411125486E+02  0.00000000000E+00 0.  1.
<scales pt_clust_1="13000.00000" pt_clust_2="13000.00000" pt_clust_3="45.04810" pt_clust_4="62.18607"></scales>
<clustering>
<clus scale="   45.048">  2  5  1 -1</clus>
<clus scale="   62.186">  1  6  2 -1</clus>
<clus scale="  361.494">  1  4  2 -1</clus>
<clus scale="  361.494">  1  3  2 -1</clus>
</clustering>
</event>
<event>
 5   1  0.3464723E-02  0.5199555E+03  0.7816531E-02  0.1008698E+00
       21   -1    0    0  501  502  0.00000000000E+00  0.00000000000E+00  0.14767352043E+03  0.14767352043E+03  0.00000000000E+00 0. -1.
       21   -1    0    0  502  503  0.00000000000E+00  0.00000000000E+00 -0.20712482105E+04  0.20712482105E+04  0.00000000000E+00 0.  1.
  1000006    1    1    2  501    0 -0.35926523847E+03  0.16541949985E+03 -0.81727149400E+03  0.97307133213E+03  0.35000000000E+03 0.  0.
 -1000006    1    1    2    0  504  0.32234594352E+03 -0.18875477430E+03 -0.90385023639E+03  0.10387398721E+04  0.35000000000E+03 0.  0.
       21    1    1    2  504  503  0.36919294943E+02  0.23335274449E+02 -0.20245295972E+03  0.20711052670E+03  0.00000000000E+00 0.  1.
<scales pt_clust_1="13000.00000" pt_clust_2="13000.00000" pt_clust_3="43.67573"></scales>
<clustering>
<clus scale="   43.676">  2  5  1 -1</clus>
<clus scale="  519.956">  1  3  2 -1</clus>
<clus scale="  519.956">  1  3  2 -1</clus>
</clustering>
</event>
<event>
 5   1  0.3464723E-02  0.4354285E+03  0.7816531E-02  0.1032159E+00
       21   -1    0    0  504  502  0.00000000000E+00  0.00000000000E+00  0.40429928067E+03  0.40429928067E+03  0.00000000000E+00 0.  1.
       21   -1    0    0  501  503  0.00000000000E+00  0.00000000000E+00 -0.10726179269E+04  0.10726179269E+04  0.00000000000E+00 0. -1.
  1000006    1    1    2  501    0  0.11378784029E+03  0.23389035762E+03 -0.54285852050E+03  0.69631009275E+03  0.35000000000E+03 0.  0.
 -1000006    1    1    2    0  502 -0.14568841004E+03 -0.21429852665E+03 -0.34643932274E+03  0.55647926797E+03  0.35000000000E+03 0.  0.
       21    1    1    2  504  503  0.31900569750E+02 -0.19591830973E+02  0.22097919704E+03  0.22412784681E+03  0.00000000000E+00 0.  1.
<scales pt_clust_1="13000.00000" pt_clust_2="13000.00000" pt_clust_3="37.43643"></scales>
<clustering>
<clus scale="   37.436">  1  5  2 -1</clus>
<clus scale="  435.428">  1  4  2 -1</clus>
<clus scale="  435.428">  1  3  2 -1</clus>
</clustering>
</event>
<event>
 5   1  0.3464723E-02  0.3704849E+03  0.7816531E-02  0.1054508E+00
       21   -1    0    0  501  502  0.00000000000E+00  0.00000000000E+00  0.20183558009E+03  0.20183558009E+03  0.00000000000E+00 0. -1.
       21   -1    0    0  504  503  0.00000000000E+00  0.00000000000E+00 -0.78456609253E+03  0.78456609253E+03  0.00000000000E+00 0. -1.
  1000006    1    1    2  501    0  0.96922178848E+02 -0.25424117295E+02 -0.18883509792E+03  0.41012070016E+03  0.35000000000E+03 0.  0.
 -1000006    1    1    2    0  503 -0.12931976762E+03  0.42911682452E+02 -0.38610766262E+03  0.53865029651E+03  0.35000000000E+03 0.  0.
       21    1    1    2  504  502  0.32397588774E+02 -0.17487565157E+02 -0.77877518871E+01  0.37630675956E+02  0.00000000000E+00 0.  1.
<scales pt_clust_1="13000.00000" pt_clust_2="13000.00000" pt_clust_3="36.81601"></scales>
<clustering>
<clus scale="   36.816">  1  5  2 -1</clus>
<clus scale="  370.485">  2  4  1 -1</clus>
<clus scale="  370.485">  1  3  2 -1</clus>
</clustering>
</event>
<event>
 6   2  0.3464723E-02  0.4063481E+03  0.7816531E-02  0.1041603E+00
        1   -1    0    0  504    0  0.00000000000E+00  0.00000000000E+00  0.58604208947E+03  0.58604208947E+03  0.00000000000E+00 0.  1.
       21   -1    0    0  501  503  0.00000000000E+00  0.00000000000E+00 -0.10258435848E+04  0.10258435848E+04  0.00000000000E+00 0.  1.
  1000006    1    1    2  501    0 -0.13381535135E+03 -0.16160277766E+02 -0.39546588685E+03  0.54503299946E+03  0.35000000000E+03 0.  0.
 -1000006    1    1    2    0  502  0.34105992526E+03  0.86642401970E+02  0.89005775802E+02  0.50423288921E+03  0.35000000000E+03 0.  0.
       21    1    1    2  504  503 -0.12653794845E+02 -0.11846236694E+03 -0.28656277942E+03  0.31034122745E+03  0.00000000000E+00 0.  1.
        1    1    1    2  502    0 -0.19459077906E+03  0.47980242740E+02  0.15322139512E+03  0.25227855817E+03  0.00000000000E+00 0.  1.
<scales pt_clust_1="13000.00000" pt_clust_2="13000.00000" pt_clust_3="119.13627" pt_clust_4="199.48626"></scales>
<clustering>
<clus scale="  119.136">  2  5  1 -1</clus>
<clus scale="  199.486">  1  6  2 -1</clus>
<clus scale="  406.348">  1  4  2 -1</clus>
<clus scale="  406.348">  2  3  1 -1</clus>
</clustering>
</event>
<event>
 4   0  0.3464723E-02  0.4059628E+03  0.7816531E-02  0.1041734E+00
       21   -1    0    0  501  502  0.00000000000E+00  0.00000000000E+00  0.80068263013E+03  0.80068263013E+03  0.00000000000E+00 0. -1.
       21   -1    0    0  502  503  0.00000000000E+00  0.00000000000E+00 -0.20632403755E+03  0.20632403755E+03  0.00000000000E+00 0. -1.
  1000006    1    1    2  501    0 -0.16631382734E+02 -0.20501021492E+03  0.32177734585E+03  0.51802167080E+03  0.35000000000E+03 0.  0.
 -1000006    1    1    2    0  503  0.16631382734E+02  0.20501021492E+03  0.27258124673E+03  0.48898499689E+03  0.35000000000E+03 0.  0.
<scales pt_clust_1="13000.00000" pt_clust_2="13000.00000"></scales>
<clustering>
<clus scale="  405.963">  1  3  2 -1</clus>
<clus scale="  405.963">  1  3  2 -1</clus>
</clustering>
</event>
<event>
 5   1  0.3464723E-02  0.3764463E+03  0.7816531E-02  0.1052255E+00
       21   -1    0    0  501  502  0.00000000000E+00  0.00000000000E+00  0.27505519440E+03  0.27505519440E+03  0.00000000000E+00 0.  1.
       21   -1    0    0  504  503  0.00000000000E+00  0.00000000000E+00 -0.96142552064E+03  0.96142552064E+03  0.00000000000E+00 0.  1.
  1000006    1    1    2  501    0 -0.12969179613E+03 -0.47177400768E+01  0.10601315031E+01  0.37328721239E+03  0.35000000000E+03 0.  0.
 -1000006    1    1    2    0  503  0.10240981678E+03  0.10923144178E+03 -0.64121735607E+03  0.74570703106E+03  0.35000000000E+03 0.  0.
       21    1    1    2  504  502  0.27281979351E+02 -0.10451370170E+03 -0.46213101679E+02  0.11748647160E+03  0.00000000000E+00 0.  1.
<scales pt_clust_1="13000.00000" pt_clust_2="13000.00000" pt_clust_3="108.01583"></scales>
<clustering>
<clus scale="  108.016">  1  5  2 -1</clus>
<clus scale="  376.446">  1  3  2 -1</clus>
<clus scale="  376.446">  1  3  2 -1</clus>
</clustering>
</event>
<event>
 5   1  0.3464723E-02  0.1264765E+04  0.7816531E-02  0.9057983E-01
       21   -1    0    0  503  502  0.00000000000E+00  0.00000000000E+00  0.13800313683E+04  0.13800313683E+04  0.00000000000E+00 0.  1.
       21   -1    0    0  504  503  0.00000000000E+00  0.00000000000E+00 -0.15115471535E+04  0.15115471535E+04  0.00000000000E+00 0. -1.
  1000006    1    1    2  501    0  0.86735044492E+03  0.80964426666E+03 -0.73394778894E+03  0.14384018874E+04  0.35000000000E+03 0.  0.
 -1000006    1    1    2    0  502 -0.89881108333E+03 -0.83387588406E+03  0.60886241818E+03  0.14129486182E+04  0.35000000000E+03 0.  0.
       21    1    1    2  504  501  0.31460638408E+02  0.24231617405E+02 -0.64304144018E+01  0.40228016115E+02  0.00000000000E+00 0. -1.
<scales pt_clust_1="13000.00000" pt_clust_2="13000.00000" pt_clust_3="39.71074"></scales>
<clustering>
<clus scale="   39.711">  2  5  1 -1</clus>
<clus scale=" 1264.765">  2  3  1 -1</clus>
<clus scale=" 1264.765">  1  3  2 -1</clus>
</clustering>
</event>
<event>
 5   1  0.3464723E-02  0.3629804E+03  0.7816531E-02  0.1057410E+00
       21   -1    0    0  501  502  0.00000000000E+00  0.00000000000E+00  0.24399500360E+03  0.24399500360E+03  0.00000000000E+00 0.  1.
       21   -1    0    0  504  503  0.00000000000E+00  0.00000000000E+00 -0.69516744662E+03  0.69516744662E+03  0.00000000000E+00 0.  1.
  1000006    1    1    2  501    0  0.97547531185E+02 -0.16679447501E+02 -0.56783365739E+02  0.36812779769E+03  0.35000000000E+03 0.  0.
 -1000006    1    1    2    0  503 -0.77878897678E+02  0.60574513170E+02 -0.33326646927E+03  0.49325544487E+03  0.35000000000E+03 0.  0.
       21    1    1    2  504  502 -0.19668633507E+02 -0.43895065669E+02 -0.61122608009E+02  0.77779207659E+02  0.00000000000E+00 0.  1.
<scales pt_clust_1="13000.00000" pt_clust_2="13000.00000" pt_clust_3="48.10023"></scales>
<clustering>
<clus scale="   48.100">  2  5  1 -1</clus>
<clus scale="  362.980">  1  3  2 -1</clus>
<clus scale="  362.980">  1  3  2 -1</clus>
</clustering>
</event>
<event>
 4   0  0.3464723E-02  0.4294833E+03  0.7816531E-02  0.1034023E+00
       21   -1    0    0  501  502  0.00000000000E+00  0.00000000000E+00  0.67355520720E+03  0.67355520720E+03  0.00000000000E+00 0. -1.
       21   -1    0    0  502  503  0.00000000000E+00  0.00000000000E+00 -0.31844522447E+03  0.31844522447E+03  0.00000000000E+00 0. -1.
  1000006    1    1    2  501    0  0.18123398265E+03  0.17061691208E+03  0.36315948021E+03  0.56244172606E+03  0.35000000000E+03 0.  0.
 -1000006    1    1    2    0  503 -0.18123398265E+03 -0.17061691208E+03 -0.80494974756E+01  0.42955870561E+03  0.35000000000E+03 0.  0.
<scales pt_clust_1="13000.00000" pt_clust_2="13000.00000"></scales>
<clustering>
<clus scale="  429.483">  1  3  2 -1</clus>
<clus scale="  429.483">  1  3  2 -1</clus>
</clustering>
</event>
<event>
 6   2  0.3464723E-02  0.4129811E+03  0.7816531E-02  0.1039375E+00
       21   -1    0    0  501  503  0.00000000000E+00  0.00000000000E+00  0.32860959184E+03  0.32860959184E+03  0.00000000000E+00 0.  1.
        2   -1    0    0  504    0  0.00000000000E+00  0.00000000000E+00 -0.36064155664E+04  0.36064155664E+04  0.00000000000E+00 0. -1.
  1000006    1    1    2  501    0  0.86585847749E+02  0.22509635457E+03 -0.27461156048E+03  0.50604049939E+03  0.35000000000E+03 0.  0.
 -1000006    1    1    2    0  502 -0.12221768706E+03 -0.17596390791E+03 -0.71025638311E+03  0.82028323746E+03  0.35000000000E+03 0.  0.
       21    1    1    2  504  503  0.74762891645E+02 -0.81566814041E+02  0.13819764230E+03  0.17703452617E+03  0.00000000000E+00 0. -1.
        2    1    1    2  502    0 -0.39131052337E+02  0.32434367371E+02 -0.24311356732E+04  0.24316668952E+04  0.00000000000E+00 0. -1.
<scales pt_clust_1="13000.00000" pt_clust_2="13000.00000" pt_clust_3="109.81440" pt_clust_4="50.82546"></scales>
<clustering>
<clus scale="   50.825">  2  6  1 -1</clus>
<clus scale="  109.814">  1  5  2 -1</clus>
<clus scale="  412.981">  2  4  1 -1</clus>
<clus scale="  412.981">  1  3  2 -1</clus>
</clustering>
</event>
<event>
 5   1  0.3464723E-02  0.5945470E+03  0.7816531E-02  0.9916784E-01
       21   -1    0    0  502  503  0.00000000000E+00  0.00000000000E+00  0.13327186246E+04  0.13327186246E+04  0.00000000000E+00 0.  1.
        2   -1    0    0  501    0  0.00000000000E+00  0.00000000000E+00 -0.33805885490E+03  0.33805885490E+03  0.00000000000E+00 0. -1.
  1000006    1    1    2  501    0 -0.34008042932E+03 -0.36244613201E+03  0.25141507467E+03  0.65782325650E+03  0.35000000000E+03 0.  0.
 -1000006    1    1    2    0  503  0.37602178204E+03  0.28901416736E+03  0.71460492113E+03  0.92632702800E+03  0.35000000000E+03 0.  0.
        2    1    1    2  502    0 -0.35941352719E+02  0.73431964656E+02  0.28639773922E+02  0.86627195030E+02  0.00000000000E+00 0. -1.
<scales pt_clust_1="13000.00000" pt_clust_2="13000.00000" pt_clust_3="81.75594"></scales>
<clustering>
<clus scale="   81.756">  2  5  1 -1</clus>
<clus scale="  594.547">  2  3  1 -1</clus>
<clus scale="  594.547">  1  3  2 -1</clus>
</clustering>
</event>
<event>
 6   2  0.3464723E-02  0.4168901E+03  0.7816531E-02  0.1038083E+00
       21   -1    0    0  502  503  0.00000000000E+00  0.00000000000E+00  0.90683567061E+03  0.90683567061E+03  0.00000000000E+00 0. -1.
       -2   -1    0    0    0  501  0.00000000000E+00  0.00000000000E+00 -0.36657058305E+03  0.36657058305E+03  0.00000000000E+00 0. -1.
  1000006    1    1    2  502    0 -0.77913981724E+01 -0.21041842400E+03  0.33440500306E+03  0.52788571217E+03  0.35000000000E+03 0.  0.
 -1000006    1    1    2    0  501  0.15958765941E+03  0.22587986642E+03 -0.16087116659E+02  0.44637286030E+03  0.35000000000E+03 0.  0.
       21    1    1    2  504  503 -0.58692552529E+02  0.30361042246E+01  0.19017330334E+03  0.19904752938E+03  0.00000000000E+00 0. -1.
       -2    1    1    2    0  504 -0.93103708714E+02 -0.18497546642E+02  0.31773897828E+02  0.10010015180E+03  0.00000000000E+00 0. -1.
<scales pt_clust_1="13000.00000" pt_clust_2="13000.00000" pt_clust_3="58.77103" pt_clust_4="100.20708"></scales>
<clustering>
<clus scale="   58.771">  1  5  2 -1</clus>
<clus scale="  100.207">  2  6  1 -1</clus>
<clus scale="  416.890">  2  4  1 -1</clus>
<clus scale="  416.890">  1  3  2 -1</clus>
</clustering>
</event>
<event>
 5   1  0.3464723E-02  0.3509185E+03  0.7816531E-02  0.1062239E+00
       21   -1    0    0  504  502  0.00000000000E+00  0.00000000000E+00  0.11854840871E+04  0.11854840871E+04  0.00000000000E+00 0. -1.
       21   -1    0    0  502  503  0.00000000000E+00  0.00000000000E+00 -0.36766477809E+03  0.36766477809E+03  0.00000000000E+00 0. -1.
  1000006    1    1    2  501    0 -0.30968516893E+01 -0.31113802062E+02  0.35251968420E+03  0.49774269148E+03  0.35000000000E+03 0.  0.
 -1000006    1    1    2    0  503  0.30323212507E+02 -0.18384948574E+01 -0.18953212713E+03  0.39918079174E+03  0.35000000000E+03 0.  0.
       21    1    1    2  504  501 -0.27226360817E+02  0.32952296919E+02  0.65483175191E+03  0.65622538194E+03  0.00000000000E+00 0. -1.
<scales pt_clust_1="13000.00000" pt_clust_2="13000.00000" pt_clust_3="42.74492"></scales>
<clustering>
<clus scale="   42.745">  1  5  2 -1</clus>
<clus scale="  350.919">  2  4  1 -1</clus>
<clus scale="  350.919">  1  3  2 -1</clus>
</clustering>
</event>
<event>
 5   1  0.3464723E-02  0.4638747E+03  0.7816531E-02  0.1023663E+00
       21   -1    0    0  503  502  0.00000000000E+00  0.00000000000E+00  0.35808371083E+03  0.35808371083E+03  0.00000000000E+00 0.  1.
       21   -1    0    0  504  503  0.00000000000E+00  0.00000000000E+00 -0.10009606399E+04  0.10009606399E+04  0.00000000000E+00 0. -1.
  1000006    1    1    2  501    0  0.34165150815E+03 -0.74916669097E+01 -0.66203519634E+03  0.82314790851E+03  0.35000000000E+03 0.  0.
 -1000006    1    1    2    0  502 -0.29452550190E+03 -0.10581791285E+02  0.71585773383E+02  0.46312176425E+03  0.35000000000E+03 0.  0.
       21    1    1    2  504  501 -0.47126006246E+02  0.18073458195E+02 -0.52427506127E+02  0.72774677976E+02  0.00000000000E+00 0.  1.
<scales pt_clust_1="13000.00000" pt_clust_2="13000.00000" pt_clust_3="50.47287"></scales>
<clustering>
<clus scale="   50.473">  2  5  1 -1</clus>
<clus scale="  463.875">  1  4  2 -1</clus>
<clus scale="  463.875">  1  3  2 -1</clus>
</clustering>
</event>
<event>
 5   1  0.3464723E-02  0.3550666E+03  0.7816531E-02  0.1060554E+00
       21   -1    0    0  501  502  0.00000000000E+00  0.00000000000E+00  0.63139958456E+03  0.63139958456E+03  0.00000000000E+00 0. -1.
       21   -1    0    0  504  503  0.00000000000E+00  0.00000000000E+00 -0.32049758750E+03  0.32049758750E+03  0.00000000000E+00 0. -1.
  1000006    1    1    2  501    0  0.32099429560E+02 -0.95644584875E+02  0.27004668336E+03  0.45343518962E+03  0.35000000000E+03 0.  0.
 -1000006    1    1    2    0  503  0.67037370637E+02 -0.32086554933E+01  0.38408082658E+02  0.35844035117E+03  0.35000000000E+03 0.  0.
       21    1    1    2  504  502 -0.99136800197E+02  0.98853240368E+02  0.24472310499E+01  0.14002163127E+03  0.00000000000E+00 0. -1.
<scales pt_clust_1="13000.00000" pt_clust_2="13000.00000" pt_clust_3="140.00024"></scales>
<clustering>
<clus scale="  140.000">  2  5  1 -1</clus>
<clus scale="  355.067">  1  3  2 -1</clus>
<clus scale="  355.067">  1  3  2 -1</clus>
</clustering>
</event>
<event>
 4   0  0.3464723E-02  0.3853787E+03  0.7816531E-02  0.1048963E+00
       21   -1    0    0  503  502  0.00000000000E+00  0.00000000000E+00  0.16723565190E+04  0.16723565190E+04  0.00000000000E+00 0.  1.
       21   -1    0    0  501  503  0.00000000000E+00  0.00000000000E+00 -0.10367197337E+03  0.10367197337E+03  0.00000000000E+00 0.  1.
  1000006    1    1    2  501    0  0.49531508542E+02 -0.15350376456E+03  0.44808400467E+03  0.59101273363E+03  0.35000000000E+03 0.  0.
 -1000006    1    1    2    0  502 -0.49531508542E+02  0.15350376456E+03  0.11206005409E+04  0.11850157587E+04  0.35000000000E+03 0.  0.
<scales pt_clust_1="13000.00000" pt_clust_2="13000.00000"></scales>
<clustering>
<clus scale="  385.379">  2  3  1 -1</clus>
<clus scale="  385.379">  1  3  2 -1</clus>
</clustering>
</event>
<event>
 6   2  0.3464723E-02  0.3739648E+03  0.7816531E-02  0.1053187E+00
       21   -1    0    0  503  502  0.00000000000E+00  0.00000000000E+00  0.15117209416E+04  0.15117209416E+04  0.00000000000E+00 0. -1.
       21   -1    0    0  501  503  0.00000000000E+00  0.00000000000E+00 -0.17557388720E+03  0.17557388720E+03  0.00000000000E+00 0. -1.
  1000006    1    1    2  501    0  0.16804788232E+03 -0.84716479542E+02  0.31355354581E+03  0.50619442781E+03  0.35000000000E+03 0.  0.
 -1000006    1    1    2    0  505  0.38226155617E+02  0.10088837970E+03  0.71656862141E+03  0.80474237699E+03  0.35000000000E+03 0.  0.
       21    1    1    2  504  502 -0.15470672157E+03  0.13207496189E+02  0.18469221209E+03  0.24128783820E+03  0.00000000000E+00 0.  1.
       21    1    1    2  505  504 -0.51567316367E+02 -0.29379396351E+02  0.12133267506E+03  0.13507018577E+03  0.00000000000E+00 0. -1.
<scales pt_clust_1="13000.00000" pt_clust_2="13000.00000" pt_clust_3="219.07563" pt_clust_4="44.51243"></scales>
<clustering>
<clus scale="   44.512">  5  6 -1 -1</clus>
<clus scale="  219.076">  1  5  2 -1</clus>
<clus scale="  373.965">  2  3  1 -1</clus>
<clus scale="  373.965">  1  3  2 -1</clus>
</clustering>
</event>
<event>
 6   2  0.3464723E-02  0.6340313E+03  0.7816531E-02  0.9837213E-01
        2   -1    0    0  501    0  0.00000000000E+00  0.00000000000E+00  0.14447929442E+04  0.14447929442E+04  0.00000000000E+00 0.  1.
       21   -1    0    0  504  503  0.00000000000E+00  0.00000000000E+00 -0.70383312104E+03  0.70383312104E+03  0.00000000000E+00 0. -1.
  1000006    1    1    2  501    0 -0.28554324439E+02 -0.63236104929E+03  0.79206227340E+02  0.72764652995E+03  0.35000000000E+03 0.  0.
 -1000006    1    1    2    0  503  0.11986098340E+03  0.45462509091E+03 -0.33817602714E+02  0.58710668441E+03  0.35000000000E+03 0.  0.
       21    1    1    2  504  502 -0.20194775071E+02 -0.22948124094E+02 -0.49941061819E+02  0.58553864050E+02  0.00000000000E+00 0. -1.
        2    1    1    2  502    0 -0.71111883893E+02  0.20068408247E+03  0.74551226031E+03  0.77531898678E+03  0.00000000000E+00 0.  1.
<scales pt_clust_1="13000.00000" pt_clust_2="13000.00000" pt_clust_3="30.56870" pt_clust_4="212.57015"></scales>
<clustering>
<clus scale="   30.569">  2  5  1 -1</clus>
<clus scale="  212.570">  1  6  2 -1</clus>
<clus scale="  634.031">  1  3  2 -1</clus>
<clus scale="  634.031">  2  3  1 -1</clus>
</clustering>
</event>
<event>
 4   0  0.3464723E-02  0.3946566E+03  0.7816531E-02  0.1045646E+00
       21   -1    0    0  501  502  0.00000000000E+00  0.00000000000E+00  0.92916705860E+03  0.92916705860E+03  0.00000000000E+00 0.  1.
       21   -1    0    0  502  503  0.00000000000E+00  0.00000000000E+00 -0.16840063554E+03  0.16840063554E+03  0.00000000000E+00 0.  1.
  1000006    1    1    2  501    0  0.44361828362E+01  0.18230240228E+03  0.41757004260E+03  0.57455947131E+03  0.35000000000E+03 0.  0.
 -1000006    1    1    2    0  503 -0.44361828362E+01 -0.18230240228E+03  0.34319638045E+03  0.52300822283E+03  0.35000000000E+03 0.  0.
<scales pt_clust_1="13000.00000" pt_clust_2="13000.00000"></scales>
<clustering>
<clus scale="  394.657">  1  3  2 -1</clus>
<clus scale="  394.657">  1  3  2 -1</clus>
</clustering>
</event>
<event>
 6   2  0.3464723E-02  0.4022820E+03  0.7816531E-02  0.1042992E+00
        1   -1    0    0  503    0  0.00000000000E+00  0.00000000000E+00  0.19096334032E+04  0.19096334032E+04  0.00000000000E+00 0.  1.
       21   -1    0    0  504  503  0.00000000000E+00  0.00000000000E+00 -0.38154537017E+03  0.38154537017E+03  0.00000000000E+00 0.  1.
  1000006    1    1    2  501    0  0.12181854691E+03 -0.52751066503E+02  0.73037599154E+02  0.38138815435E+03  0.35000000000E+03 0.  0.
 -1000006    1    1    2    0  502 -0.24213322203E+03  0.10822666269E+03  0.49427108286E+03  0.66116972940E+03  0.35000000000E+03 0.  0.
       21    1    1    2  504  501 -0.17632844448E+02 -0.16225799668E+03 -0.88004682511E+02  0.18542761076E+03  0.00000000000E+00 0. -1.
        1    1    1    2  502    0  0.13794751957E+03  0.10678240049E+03  0.10487840335E+04  0.10631932788E+04  0.00000000000E+00 0.  1.
<scales pt_clust_1="13000.00000" pt_clust_2="13000.00000" pt_clust_3="163.21328" pt_clust_4="171.14959"></scales>
<clustering>
<clus scale="  163.213">  2  5  1 -1</clus>
<clus scale="  171.150">  1  6  2 -1</clus>
<clus scale="  402.282">  2  3  1 -1</clus>
<clus scale="  402.282">  2  3  1 -1</clus>
</clustering>
</event>
<event>
 5   1  0.3464723E-02  0.4200799E+03  0.7816531E-02  0.1037040E+00
       21   -1    0    0  503  502  0.00000000000E+00  0.00000000000E+00  0.14431983844E+04  0.14431983844E+04  0.00000000000E+00 0.  1.
       21   -1    0    0  501  503  0.00000000000E+00  0.00000000000E+00 -0.20112432155E+03  0.20112432155E+03  0.00000000000E+00 0.  1.
  1000006    1    1    2  501    0  0.13279661714E+03  0.19834363576E+03  0.19916090584E+03  0.46812413501E+03  0.35000000000E+03 0.  0.
 -1000006    1    1    2    0  504 -0.15770334146E+03 -0.15716228574E+03  0.59280521119E+03  0.72352494523E+03  0.35000000000E+03 0.  0.
       21    1    1    2  504  502  0.24906724318E+02 -0.41181350021E+02  0.45010794584E+03  0.45267362571E+03  0.00000000000E+00 0.  1.
<scales pt_clust_1="13000.00000" pt_clust_2="13000.00000" pt_clust_3="48.12742"></scales>
<clustering>
<clus scale="   48.127">  1  5  2 -1</clus>
<clus scale="  420.080">  2  3  1 -1</clus>
<clus scale="  420.080">  1  3  2 -1</clus>
</clustering>
</event>
<event>
 5   1  0.3464723E-02  0.4289511E+03  0.7816531E-02  0.1034192E+00
        2   -1    0    0  503    0  0.00000000000E+00  0.00000000000E+00  0.58451156253E+03  0.58451156253E+03  0.00000000000E+00 0. -1.
       21   -1    0    0  501  503  0.00000000000E+00  0.00000000000E+00 -0.77946107876E+03  0.77946107876E+03  0.00000000000E+00 0.  1.
  1000006    1    1    2  501    0 -0.26145468692E+03  0.25596166341E+02 -0.46521826685E+03  0.63870318056E+03  0.35000000000E+03 0.  0.
 -1000006    1    1    2    0  502  0.19159290244E+03 -0.13771325574E+03 -0.25917403964E+01  0.42211313435E+03  0.35000000000E+03 0.  0.
        2    1    1    2  502    0  0.69861784479E+02  0.11211708940E+03  0.27286049101E+03  0.30315632638E+03  0.00000000000E+00 0. -1.
<scales pt_clust_1="13000.00000" pt_clust_2="13000.00000" pt_clust_3="132.10190"></scales>
<clustering>
<clus scale="  132.102">  1  5  2 -1</clus>
<clus scale="  428.951">  1  4  2 -1</clus>
<clus scale="  428.951">  2  3  1 -1</clus>
</clustering>
</event>
<event>
 5   1  0.3464723E-02  0.3712869E+03  0.7816531E-02  0.1054202E+00
       21   -1    0    0  501  502  0.00000000000E+00  0.00000000000E+00  0.37726889870E+03  0.37726889870E+03  0.00000000000E+00 0.  1.
       21   -1    0    0  504  503  0.00000000000E+00  0.00000000000E+00 -0.59496265068E+03  0.59496265068E+03  0.00000000000E+00 0.  1.
  1000006    1    1    2  501    0 -0.11708088756E+03 -0.15503512760E+02  0.17159575580E+03  0.40730013080E+03  0.35000000000E+03 0.  0.
 -1000006    1    1    2    0  503  0.14276502141E+03  0.31186966364E+02 -0.36195337942E+03  0.52427543055E+03  0.35000000000E+03 0.  0.
       21    1    1    2  504  502 -0.25684133848E+02 -0.15683453605E+02 -0.27336128364E+02  0.40655988027E+02  0.00000000000E+00 0.  1.
<scales pt_clust_1="13000.00000" pt_clust_2="13000.00000" pt_clust_3="30.09394"></scales>
<clustering>
<clus scale="   30.094">  2  5  1 -1</clus>
<clus scale="  371.287">  1  3  2 -1</clus>
<clus scale="  371.287">  1  3  2 -1</clus>
</clustering>
</event>
<event>
 5   1  0.3464723E-02  0.3504882E+03  0.7816531E-02  0.1062415E+00
       21   -1    0    0  501  502  0.00000000000E+00  0.00000000000E+00  0.10468152897E+04  0.10468152897E+04  0.00000000000E+00 0. -1.
       21   -1    0    0  502  503  0.00000000000E+00  0.00000000000E+00 -0.17708575057E+03  0.17708575057E+03  0.00000000000E+00 0. -1.
  1000006    1    1    2  501    0  0.53653402973E+01 -0.32517348106E+02  0.47734168748E+03  0.59282480668E+03  0.35000000000E+03 0.  0.
 -1000006    1    1    2    0  504  0.20539731759E+02  0.66573629582E+00  0.44360998651E+03  0.56543093647E+03  0.35000000000E+03 0.  0.
       21    1    1    2  504  503 -0.25905072057E+02  0.31851611811E+02 -0.51222134862E+02  0.65645297113E+02  0.00000000000E+00 0. -1.
<scales pt_clust_1="13000.00000" pt_clust_2="13000.00000" pt_clust_3="41.05603"></scales>
<clustering>
<clus scale="   41.056">  2  5  1 -1</clus>
<clus scale="  350.488">  1  3  2 -1</clus>
<clus scale="  350.488">  1  3  2 -1</clus>
</clustering>
</event>
<event>
 5   1  0.3464723E-02  0.3555787E+03  0.7816531E-02  0.1060348E+00
       21   -1    0    0  501  502  0.00000000000E+00  0.00000000000E+00  0.61076837265E+03  0.61076837265E+03  0.00000000000E+00 0.  1.
       21   -1    0    0  504  503  0.00000000000E+00  0.00000000000E+00 -0.28825235079E+03  0.28825235079E+03  0.00000000000E+00 0.  1.
  1000006    1    1    2  501    0 -0.54619311705E+02 -0.20043617337E+02  0.34779183289E+03  0.49683415224E+03  0.35000000000E+03 0.  0.
 -1000006    1    1    2    0  503  0.77961246149E+02 -0.56735002823E+01  0.10201984888E+01  0.35862401664E+03  0.35000000000E+03 0.  0.
       21    1    1    2  504  502 -0.23341934444E+02  0.25717117620E+02 -0.26296009523E+02  0.43562554551E+02  0.00000000000E+00 0.  1.
<scales pt_clust_1="13000.00000" pt_clust_2="13000.00000" pt_clust_3="34.73062"></scales>
<clustering>
<clus scale="   34.731">  2  5  1 -1</clus>
<clus scale="  355.579">  2  4  1 -1</clus>
<clus scale="  355.579">  1  3  2 -1</clus>
</clustering>
</event>
<event>
 4   0  0.3464723E-02  0.3535887E+03  0.7816531E-02  0.1061152E+00
       21   -1    0    0  503  502  0.00000000000E+00  0.00000000000E+00  0.40578896762E+03  0.40578896762E+03  0.00000000000E+00 0.  1.
       21   -1    0    0  501  503  0.00000000000E+00  0.00000000000E+00 -0.32519167269E+03  0.32519167269E+03  0.00000000000E+00 0.  1.
  1000006    1    1    2  501    0 -0.26397545869E+02  0.42756837202E+02 -0.43484124231E+02  0.35625250401E+03  0.35000000000E+03 0.  0.
 -1000006    1    1    2    0  502  0.26397545869E+02 -0.42756837202E+02  0.12408141916E+03  0.37472813630E+03  0.35000000000E+03 0.  0.
<scales pt_clust_1="13000.00000" pt_clust_2="13000.00000"></scales>
<clustering>
<clus scale="  353.589">  2  3  1 -1</clus>
<clus scale="  353.589">  1  3  2 -1</clus>
</clustering>
</event>
<event>
 5   1  0.3464723E-02  0.4511362E+03  0.7816531E-02  0.1027384E+00
       21   -1    0    0  501  502  0.00000000000E+00  0.00000000000E+00  0.26094372541E+03  0.26094372541E+03  0.00000000000E+00 0.  1.
       21   -1    0    0  504  503  0.00000000000E+00  0.00000000000E+00 -0.89326041269E+03  0.89326041269E+03  0.00000000000E+00 0. -1.
  1000006    1    1    2  501    0 -0.22680610977E+02  0.31054345653E+03 -0.28271067763E+03  0.54715352119E+03  0.35000000000E+03 0.  0.
 -1000006    1    1    2    0  503  0.30101524908E+02 -0.26153625017E+03 -0.34451614216E+03  0.55722408792E+03  0.35000000000E+03 0.  0.
       21    1    1    2  504  502 -0.74209139317E+01 -0.49007206360E+02 -0.50898674942E+01  0.49826528977E+02  0.00000000000E+00 0. -1.
<scales pt_clust_1="13000.00000" pt_clust_2="13000.00000" pt_clust_3="49.56588"></scales>
<clustering>
<clus scale="   49.566">  1  5  2 -1</clus>
<clus scale="  451.136">  1  3  2 -1</clus>
<clus scale="  451.136">  1  3  2 -1</clus>
</clustering>
</event>
<event>
 5   1  0.3464723E-02  0.3688778E+03  0.7816531E-02  0.1055123E+00
        2   -1    0    0  503    0  0.00000000000E+00  0.00000000000E+00  0.80557801586E+03  0.80557801586E+03  0.00000000000E+00 0. -1.
       21   -1    0    0  501  503  0.00000000000E+00  0.00000000000E+00 -0.10585793227E+04  0.10585793227E+04  0.00000000000E+00 0. -1.
  1000006    1    1    2  501    0  0.25573381653E+02  0.10402648248E+03 -0.82742455475E+03  0.90476897643E+03  0.35000000000E+03 0.  0.
 -1000006    1    1    2    0  502 -0.18543425961E+02 -0.16401214688E+03  0.52330851741E+01  0.38700287874E+03  0.35000000000E+03 0.  0.
        2    1    1    2  502    0 -0.70299556914E+01  0.59985664397E+02  0.56919016275E+03  0.57238548338E+03  0.00000000000E+00 0. -1.
<scales pt_clust_1="13000.00000" pt_clust_2="13000.00000" pt_clust_3="60.39619"></scales>
<clustering>
<clus scale="   60.396">  1  5  2 -1</clus>
<clus scale="  368.878">  2  3  1 -1</clus>
<clus scale="  368.878">  2  3  1 -1</clus>
</clustering>
</event>
<event>
 5   1  0.3464723E-02  0.3792054E+03  0.7816531E-02  0.1051228E+00
        1   -1    0    0  503    0  0.00000000000E+00  0.00000000000E+00  0.14628639255E+04  0.14628639255E+04  0.00000000000E+00 0.  1.
       21   -1    0    0  501  503  0.00000000000E+00  0.00000000000E+00 -0.37636012431E+03  0.37636012431E+03  0.00000000000E+00 0.  1.
  1000006    1    1    2  501    0  0.16080441292E+03  0.16305309418E+03 -0.61543552226E+02  0.42276705117E+03  0.35000000000E+03 0.  0.
 -1000006    1    1    2    0  502 -0.19206558994E+02 -0.26132751378E+02  0.12260457957E+03  0.37226831122E+03  0.35000000000E+03 0.  0.
        1    1    1    2  502    0 -0.14159785393E+03 -0.13692034280E+03  0.10254427739E+04  0.10441886875E+04  0.00000000000E+00 0.  1.
<scales pt_clust_1="13000.00000" pt_clust_2="13000.00000" pt_clust_3="196.96988"></scales>
<clustering>
<clus scale="  196.970">  1  5  2 -1</clus>
<clus scale="  379.205">  1  4  2 -1</clus>
<clus scale="  379.205">  2  3  1 -1</clus>
</clustering>
</event>
<event>
 5   1  0.3464723E-02  0.4235676E+03  0.7816531E-02  0.1035911E+00
       21   -1    0    0  501  503  0.00000000000E+00  0.00000000000E+00  0.34730486174E+03  0.34730486174E+03  0.00000000000E+00 0. -1.
        2   -1    0    0  503    0  0.00000000000E+00  0.00000000000E+00 -0.17712747405E+04  0.17712747405E+04  0.00000000000E+00 0. -1.
  1000006    1    1    2  501    0  0.19707036399E+03  0.14519886377E+02 -0.14762528809E+03  0.42818311637E+03  0.35000000000E+03 0.  0.
 -1000006    1    1    2    0  502 -0.22810833892E+03  0.23599523766E+03 -0.10371083850E+03  0.49090029996E+03  0.35000000000E+03 0.  0.
        2    1    1    2  502    0  0.31037974929E+02 -0.25051512404E+03 -0.11726337522E+04  0.11994961859E+04  0.00000000000E+00 0. -1.
<scales pt_clust_1="13000.00000" pt_clust_2="13000.00000" pt_clust_3="252.43055"></scales>
<clustering>
<clus scale="  252.431">  2  5  1 -1</clus>
<clus scale="  423.568">  1  3  2 -1</clus>
<clus scale="  423.568">  1  3  2 -1</clus>
</clustering>
</event>
<event>
 6   2  0.3464723E-02  0.4241825E+03  0.7816531E-02  0.1035714E+00
       21   -1    0    0  501  502  0.00000000000E+00  0.00000000000E+00  0.16193666639E+04  0.16193666639E+04  0.00000000000E+00 0. -1.
       21   -1    0    0  505  503  0.00000000000E+00  0.00000000000E+00 -0.43392046764E+03  0.43392046764E+03  0.00000000000E+00 0.  1.
  1000006    1    1    2  501    0 -0.15052129707E+03 -0.21805443980E+02  0.61193135437E+03  0.72117412649E+03  0.35000000000E+03 0.  0.
 -1000006    1    1    2    0  504  0.21735147521E+03 -0.15276570313E+03  0.62473437375E+02  0.44382649110E+03  0.35000000000E+03 0.  0.
       21    1    1    2  504  503  0.11005828547E+02 -0.63616067750E+02 -0.15970512752E+03  0.17226102314E+03  0.00000000000E+00 0.  1.
       21    1    1    2  505  502 -0.77836006685E+02  0.23818721486E+03  0.67074653206E+03  0.71602549084E+03  0.00000000000E+00 0. -1.
<scales pt_clust_1="13000.00000" pt_clust_2="13000.00000" pt_clust_3="64.56107" pt_clust_4="245.18553"></scales>
<clustering>
<clus scale="   64.561">  2  5  1 -1</clus>
<clus scale="  245.186">  1  6  2 -1</clus>
<clus scale="  424.182">  2  4  1 -1</clus>
<clus scale="  424.182">  1  3  2 -1</clus>
</clustering>
</event>
<event>
 6   2  0.3464723E-02  0.4843240E+03  0.7816531E-02  0.1017954E+00
       21   -1    0    0  501  502  0.00000000000E+00  0.00000000000E+00  0.10025807185E+04  0.10025807185E+04  0.00000000000E+00 0. -1.
       21   -1    0    0  504  503  0.00000000000E+00  0.00000000000E+00 -0.10767082626E+04  0.10767082626E+04  0.00000000000E+00 0. -1.
  1000006    1    1    2  501    0  0.32462639290E+03 -0.29050620478E+03  0.23449362027E+03  0.60602261338E+03  0.35000000000E+03 0.  0.
 -1000006    1    1    2    0  503  0.20935599230E+02  0.23938174275E+03 -0.51492867852E+03  0.66737805031E+03  0.35000000000E+03 0.  0.
       21    1    1    2  504  505 -0.21057942841E+03  0.67277471460E+02 -0.24767791280E+03  0.33198539475E+03  0.00000000000E+00 0.  1.
       21    1    1    2  505  502 -0.13498256372E+03 -0.16153009431E+02  0.45398542696E+03  0.47390292267E+03  0.00000000000E+00 0. -1.
<scales pt_clust_1="13000.00000" pt_clust_2="13000.00000" pt_clust_3="230.78575" pt_clust_4="135.94562"></scales>
<clustering>
<clus scale="  135.946">  1  6  2 -1</clus>
<clus scale="  230.786">  2  5  1 -1</clus>
<clus scale="  484.324">  2  4  1 -1</clus>
<clus scale="  484.324">  1  3  2 -1</clus>
</clustering>
</event>
<event>
 5   1  0.3464723E-02  0.4295447E+03  0.7816531E-02  0.1034004E+00
       21   -1    0    0  504  502  0.00000000000E+00  0.00000000000E+00  0.89186894728E+02  0.89186894728E+02  0.00000000000E+00 0.  1.
       21   -1    0    0  501  503  0.00000000000E+00  0.00000000000E+00 -0.27057260844E+04  0.27057260844E+04  0.00000000000E+00 0.  1.
  1000006    1    1    2  501    0  0.16163687163E+03  0.20970069518E+03 -0.12430636987E+04  0.13182595415E+04  0.35000000000E+03 0.  0.
 -1000006    1    1    2    0  502 -0.54413234471E+02 -0.24072767485E+03 -0.10296802859E+04  0.11151915103E+04  0.35000000000E+03 0.  0.
       21    1    1    2  504  503 -0.10722363716E+03  0.31026979675E+02 -0.34379520510E+03  0.36146192729E+03  0.00000000000E+00 0.  1.
<scales pt_clust_1="13000.00000" pt_clust_2="13000.00000" pt_clust_3="111.62250"></scales>
<clustering>
<clus scale="  111.622">  2  5  1 -1</clus>
<clus scale="  429.545">  1  4  2 -1</clus>
<clus scale="  429.545">  1  3  2 -1</clus>
</clustering>
</event>
<event>
 5   1  0.3464723E-02  0.4137774E+03  0.7816531E-02  0.1039111E+00
       21   -1    0    0  501  503  0.00000000000E+00  0.00000000000E+00  0.41425034583E+03  0.41425034583E+03  0.00000000000E+00 0.  1.
       -2   -1    0    0    0  501  0.00000000000E+00  0.00000000000E+00 -0.54577703368E+03  0.54577703368E+03  0.00000000000E+00 0.  1.
  1000006    1    1    2  502    0 -0.29334586695E+02 -0.21180326470E+03 -0.73796429315E+02  0.41673379260E+03  0.35000000000E+03 0.  0.
 -1000006    1    1    2    0  503  0.74630218649E+02  0.21506209030E+03  0.55599335424E+02  0.42120382040E+03  0.35000000000E+03 0.  0.
       -2    1    1    2    0  502 -0.45295631954E+02 -0.32588255930E+01 -0.11332959396E+03  0.12208976651E+03  0.00000000000E+00 0.  1.
<scales pt_clust_1="13000.00000" pt_clust_2="13000.00000" pt_clust_3="45.41271"></scales>
<clustering>
<clus scale="   45.413">  2  5  1 -1</clus>
<clus scale="  413.777">  2  3  1 -1</clus>
<clus scale="  413.777">  1  3  2 -1</clus>
</clustering>
</event>
<event>
 6   2  0.3464723E-02  0.5216985E+03  0.7816531E-02  0.1018859E+00
       21   -1    0    0  504  502  0.00000000000E+00  0.00000000000E+00  0.63853365691E+03  0.63853365691E+03  0.00000000000E+00 0. -1.
       21   -1    0    0  501  503  0.00000000000E+00  0.00000000000E+00 -0.24681363068E+04  0.24681363068E+04  0.00000000000E+00 0. -1.
  1000006    1    1    2  501    0  0.30736436773E+02  0.14451194668E+03 -0.10367160869E+03  0.39379719873E+03  0.35000000000E+03 0.  0.
 -1000006    1    1    2    0  502 -0.34985049513E+03 -0.15647663191E+03 -0.21537134691E+02  0.51946525721E+03  0.35000000000E+03 0.  0.
       21    1    1    2  504  505  0.39778086704E+03  0.24039075313E+02  0.80653792206E+02  0.40658643548E+03  0.00000000000E+00 0. -1.
       21    1    1    2  505  503 -0.78666808676E+02 -0.12074390082E+02 -0.17850476987E+04  0.17868210723E+04  0.00000000000E+00 0. -1.
<scales pt_clust_1="13000.00000" pt_clust_2="13000.00000" pt_clust_3="386.87118" pt_clust_4="79.58805"></scales>
<clustering>
<clus scale="   79.588">  2  6  1 -1</clus>
<clus scale="  377.008">  2  3  1 -1</clus>
<clus scale="  386.871">  1  5  2 -1</clus>
<clus scale="  521.698">  1  3  2 -1</clus>
</clustering>
</event>
<event>
 5   1  0.3464723E-02  0.3735326E+03  0.7816531E-02  0.1053350E+00
        2   -1    0    0  503    0  0.00000000000E+00  0.00000000000E+00  0.21683088419E+04  0.21683088419E+04  0.00000000000E+00 0.  1.
       21   -1    0    0  501  503  0.00000000000E+00  0.00000000000E+00 -0.13562129182E+03  0.13562129182E+03  0.00000000000E+00 0.  1.
  1000006    1    1    2  501    0 -0.10145861617E+03 -0.66291567543E+02  0.27001527548E+03  0.45836303485E+03  0.35000000000E+03 0.  0.
 -1000006    1    1    2    0  502  0.16024140225E+03  0.28653179067E+02  0.88992953047E+03  0.97003756673E+03  0.35000000000E+03 0.  0.
        2    1    1    2  502    0 -0.58782786083E+02  0.37638388476E+02  0.87274274414E+03  0.87552953215E+03  0.00000000000E+00 0.  1.
<scales pt_clust_1="13000.00000" pt_clust_2="13000.00000" pt_clust_3="69.80017"></scales>
<clustering>
<clus scale="   69.800">  1  5  2 -1</clus>
<clus scale="  373.533">  1  4  2 -1</clus>
<clus scale="  373.533">  2  3  1 -1</clus>
</clustering>
</event>
<event>
 6   2  0.3464723E-02  0.3614660E+03  0.7816531E-02  0.1058005E+00
       21   -1    0    0  501  502  0.00000000000E+00  0.00000000000E+00  0.53050124174E+03  0.53050124174E+03  0.00000000000E+00 0. -1.
       21   -1    0    0  505  503  0.00000000000E+00  0.00000000000E+00 -0.64994228508E+03  0.64994228508E+03  0.00000000000E+00 0. -1.
  1000006    1    1    2  501    0  0.11194101388E+02 -0.99706296717E+02  0.15741810839E+03  0.39667003209E+03  0.35000000000E+03 0.  0.
 -1000006    1    1    2    0  503 -0.86126879149E+01  0.78869571106E+02  0.11422407824E+03  0.37661880953E+03  0.35000000000E+03 0.  0.
       21    1    1    2  504  502 -0.35475013682E+02  0.25686231941E+02 -0.59358486987E+02  0.73767805203E+02  0.00000000000E+00 0.  1.
       21    1    1    2  505  504  0.32893600209E+02 -0.48495063299E+01 -0.33172474298E+03  0.33338688000E+03  0.00000000000E+00 0. -1.
<scales pt_clust_1="13000.00000" pt_clust_2="13000.00000" pt_clust_3="37.75160" pt_clust_4="33.24916"></scales>
<clustering>
<clus scale="   33.249">  2  6  1 -1</clus>
<clus scale="   37.752">  2  5  1 -1</clus>
<clus scale="  361.466">  1  3  2 -1</clus>
<clus scale="  361.466">  1  3  2 -1</clus>
</clustering>
</event>
<event>
 5   1  0.3464723E-02  0.5832701E+03  0.7816531E-02  0.9940736E-01
       21   -1    0    0  503  502  0.00000000000E+00  0.00000000000E+00  0.14538844773E+04  0.14538844773E+04  0.00000000000E+00 0. -1.
       21   -1    0    0  504  503  0.00000000000E+00  0.00000000000E+00 -0.32197611041E+03  0.32197611041E+03  0.00000000000E+00 0. -1.
  1000006    1    1    2  501    0  0.14153321287E+02  0.49042523073E+03  0.57077941966E+03  0.83006407545E+03  0.35000000000E+03 0.  0.
 -1000006    1    1    2    0  502 -0.25921269719E+02 -0.44594435237E+03  0.63945817436E+03  0.85495323521E+03  0.35000000000E+03 0.  0.
       21    1    1    2  504  501  0.11767948433E+02 -0.44480878359E+02 -0.78329227171E+02  0.90843277016E+02  0.00000000000E+00 0. -1.
<scales pt_clust_1="13000.00000" pt_clust_2="13000.00000" pt_clust_3="46.01123"></scales>
<clustering>
<clus scale="   46.011">  2  5  1 -1</clus>
<clus scale="  583.270">  2  3  1 -1</clus>
<clus scale="  583.270">  1  3  2 -1</clus>
</clustering>
</event>
<event>
 5   1  0.3464723E-02  0.4454886E+03  0.7816531E-02  0.1029076E+00
       21   -1    0    0  502  503  0.00000000000E+00  0.00000000000E+00  0.14684690296E+03  0.14684690296E+03  0.00000000000E+00 0. -1.
        2   -1    0    0  501    0  0.00000000000E+00  0.00000000000E+00 -0.20835384901E+04  0.20835384901E+04  0.00000000000E+00 0. -1.
  1000006    1    1    2  501    0  0.29408270956E+03  0.30954917125E+01 -0.78306915188E+03  0.90674777020E+03  0.35000000000E+03 0.  0.
 -1000006    1    1    2    0  503 -0.26302411408E+03 -0.11308088723E+02 -0.48203128437E+03  0.65127852457E+03  0.35000000000E+03 0.  0.
        2    1    1    2  502    0 -0.31058595475E+02  0.82125970105E+01 -0.67159115091E+03  0.67235909831E+03  0.00000000000E+00 0. -1.
<scales pt_clust_1="13000.00000" pt_clust_2="13000.00000" pt_clust_3="32.12605"></scales>
<clustering>
<clus scale="   32.126">  2  5  1 -1</clus>
<clus scale="  445.489">  2  3  1 -1</clus>
<clus scale="  445.489">  1  3  2 -1</clus>
</clustering>
</event>
<event>
 6   2  0.3464723E-02  0.4383149E+03  0.7816531E-02  0.1031265E+00
       21   -1    0    0  501  502  0.00000000000E+00  0.00000000000E+00  0.11179499784E+04  0.11179499784E+04  0.00000000000E+00 0. -1.
       21   -1    0    0  504  503  0.00000000000E+00  0.00000000000E+00 -0.98433259311E+03  0.98433259311E+03  0.00000000000E+00 0. -1.
  1000006    1    1    2  501    0  0.19861571009E+03 -0.19580888885E+03  0.54529146628E+03  0.70543043913E+03  0.35000000000E+03 0.  0.
 -1000006    1    1    2    0  505 -0.25819419348E+03  0.64801546051E+02  0.37706241825E+03  0.57925775711E+03  0.35000000000E+03 0.  0.
       21    1    1    2  504  502 -0.18765219409E+02  0.64665918712E+02 -0.95807621418E+02  0.11710215551E+03  0.00000000000E+00 0. -1.
       21    1    1    2  505  503  0.78343702794E+02  0.66341424088E+02 -0.69292887779E+03  0.70049221980E+03  0.00000000000E+00 0. -1.
<scales pt_clust_1="13000.00000" pt_clust_2="13000.00000" pt_clust_3="67.33361" pt_clust_4="133.68039"></scales>
<clustering>
<clus scale="   67.334">  2  5  1 -1</clus>
<clus scale="  133.680">  2  6  1 -1</clus>
<clus scale="  438.315">  2  4  1 -1</clus>
<clus scale="  438.315">  1  3  2 -1</clus>
</clustering>
</event>
<event>
 4   0  0.3464723E-02  0.3852481E+03  0.7816531E-02  0.1049011E+00
       21   -1    0    0  503  502  0.00000000000E+00  0.00000000000E+00  0.45750316353E+03  0.45750316353E+03  0.00000000000E+00 0.  1.
       21   -1    0    0  501  503  0.00000000000E+00  0.00000000000E+00 -0.32468298366E+03  0.32468298366E+03  0.00000000000E+00 0.  1.
  1000006    1    1    2  501    0 -0.10837341134E+03 -0.11904339338E+03  0.54958106510E+02  0.38914845402E+03  0.35000000000E+03 0.  0.
 -1000006    1    1    2    0  502  0.10837341134E+03  0.11904339338E+03  0.77862073362E+02  0.39303769318E+03  0.35000000000E+03 0.  0.
<scales pt_clust_1="13000.00000" pt_clust_2="13000.00000"></scales>
<clustering>
<clus scale="  385.248">  2  3  1 -1</clus>
<clus scale="  385.248">  1  3  2 -1</clus>
</clustering>
</event>
<event>
 5   1  0.3464723E-02  0.3549986E+03  0.7816531E-02  0.1060582E+00
       21   -1    0    0  501  502  0.00000000000E+00  0.00000000000E+00  0.51218300388E+03  0.51218300388E+03  0.00000000000E+00 0.  1.
       21   -1    0    0  504  503  0.00000000000E+00  0.00000000000E+00 -0.90800896710E+03  0.90800896710E+03  0.00000000000E+00 0.  1.
  1000006    1    1    2  501    0 -0.22320153767E+02  0.45251108816E+02  0.33357383649E+03  0.48612483634E+03  0.35000000000E+03 0.  0.
 -1000006    1    1    2    0  503 -0.10586664321E+03 -0.14178280401E+03 -0.36438995800E+03  0.53534115398E+03  0.35000000000E+03 0.  0.
       21    1    1    2  504  502  0.12818679698E+03  0.96531695198E+02 -0.36500984172E+03  0.39872598066E+03  0.00000000000E+00 0.  1.
<scales pt_clust_1="13000.00000" pt_clust_2="13000.00000" pt_clust_3="160.46876"></scales>
<clustering>
<clus scale="  160.469">  2  5  1 -1</clus>
<clus scale="  354.999">  1  3  2 -1</clus>
<clus scale="  354.999">  1  3  2 -1</clus>
</clustering>
</event>
<event>
 6   2  0.3464723E-02  0.3741904E+03  0.7816531E-02  0.1053102E+00
       21   -1    0    0  504  502  0.00000000000E+00  0.00000000000E+00  0.16180665502E+04  0.16180665502E+04  0.00000000000E+00 0. -1.
       21   -1    0    0  501  503  0.00000000000E+00  0.00000000000E+00 -0.28924429923E+03  0.28924429923E+03  0.00000000000E+00 0. -1.
  1000006    1    1    2  501    0 -0.34598099904E+02  0.79791391807E+02 -0.85630939402E+02  0.37067013976E+03  0.35000000000E+03 0.  0.
 -1000006    1    1    2    0  502 -0.59871958505E+02 -0.12817411781E+03  0.87542593661E+03  0.95335398797E+03  0.35000000000E+03 0.  0.
       21    1    1    2  504  505  0.56478200412E+02 -0.17031855566E+02  0.48911021650E+03  0.49265472200E+03  0.00000000000E+00 0. -1.
       21    1    1    2  505  503  0.37991857997E+02  0.65414581571E+02  0.49917037226E+02  0.90631999656E+02  0.00000000000E+00 0. -1.
<scales pt_clust_1="13000.00000" pt_clust_2="13000.00000" pt_clust_3="58.99043" pt_clust_4="76.58070"></scales>
<clustering>
<clus scale="   58.990">  1  5  2 -1</clus>
<clus scale="   76.581">  2  6  1 -1</clus>
<clus scale="  374.190">  2  3  1 -1</clus>
<clus scale="  374.190">  1  3  2 -1</clus>
</clustering>
</event>
<event>
 5   1  0.3464723E-02  0.5169736E+03  0.7816531E-02  0.1009441E+00
        2   -1    0    0  501    0  0.00000000000E+00  0.00000000000E+00  0.18111758180E+04  0.18111758180E+04  0.00000000000E+00 0.  1.
       21   -1    0    0  502  503  0.00000000000E+00  0.00000000000E+00 -0.20708858950E+03  0.20708858950E+03  0.00000000000E+00 0. -1.
  1000006    1    1    2  501    0 -0.10040170775E+03  0.37303842918E+03  0.69202880921E+03  0.86639600954E+03  0.35000000000E+03 0.  0.
 -1000006    1    1    2    0  503  0.62132320065E+02 -0.37176952623E+03  0.96083862437E+03  0.10898549756E+04  0.35000000000E+03 0.  0.
        2    1    1    2  502    0  0.38269387683E+02 -0.12689029511E+01 -0.48780205051E+02  0.62013422362E+02  0.00000000000E+00 0.  1.
<scales pt_clust_1="13000.00000" pt_clust_2="13000.00000" pt_clust_3="38.29042"></scales>
<clustering>
<clus scale="   38.290">  2  5  1 -1</clus>
<clus scale="  852.045">  3  4 -1 -1</clus>
<clus scale="  516.974">  2  3  1 -1</clus>
</clustering>
</event>
<event>
 5   1  0.3464723E-02  0.3628078E+03  0.7816531E-02  0.1057478E+00
       21   -1    0    0  504  502  0.00000000000E+00  0.00000000000E+00  0.10533484514E+04  0.10533484514E+04  0.00000000000E+00 0.  1.
       21   -1    0    0  502  503  0.00000000000E+00  0.00000000000E+00 -0.24443970070E+03  0.24443970070E+03  0.00000000000E+00 0.  1.
  1000006    1    1    2  501    0  0.82059251013E+02  0.42798364279E+02  0.15098803725E+03  0.39225349974E+03  0.35000000000E+03 0.  0.
 -1000006    1    1    2    0  503 -0.99805565874E+02 -0.15748016557E+02  0.14578874240E+03  0.39238184007E+03  0.35000000000E+03 0.  0.
       21    1    1    2  504  501  0.17746314861E+02 -0.27050347722E+02  0.51213197100E+03  0.51315281225E+03  0.00000000000E+00 0.  1.
<scales pt_clust_1="13000.00000" pt_clust_2="13000.00000" pt_clust_3="32.35202"></scales>
<clustering>
<clus scale="   32.352">  1  5  2 -1</clus>
<clus scale="  362.808">  1  3  2 -1</clus>
<clus scale="  362.808">  1  3  2 -1</clus>
</clustering>
</event>
<event>
 4   0  0.3464723E-02  0.3657774E+03  0.7816531E-02  0.1056319E+00
       21   -1    0    0  501  502  0.00000000000E+00  0.00000000000E+00  0.22632956970E+03  0.22632956970E+03  0.00000000000E+00 0.  1.
       21   -1    0    0  502  503  0.00000000000E+00  0.00000000000E+00 -0.72970906816E+03  0.72970906816E+03  0.00000000000E+00 0.  1.
  1000006    1    1    2  501    0  0.60075725787E+02 -0.87658597820E+02 -0.43385010310E+02  0.36834139290E+03  0.35000000000E+03 0.  0.
 -1000006    1    1    2    0  503 -0.60075725787E+02  0.87658597820E+02 -0.45999448815E+03  0.58769724496E+03  0.35000000000E+03 0.  0.
<scales pt_clust_1="13000.00000" pt_clust_2="13000.00000"></scales>
<clustering>
<clus scale="  365.777">  1  3  2 -1</clus>
<clus scale="  365.777">  1  3  2 -1</clus>
</clustering>
</event>
<event>
 6   2  0.3464723E-02  0.6916318E+03  0.7816531E-02  0.9731651E-01
       21   -1    0    0  504  502  0.00000000000E+00  0.00000000000E+00  0.42434200822E+03  0.42434200822E+03  0.00000000000E+00 0. -1.
       21   -1    0    0  505  503  0.00000000000E+00  0.00000000000E+00 -0.18328863848E+04  0.18328863848E+04  0.00000000000E+00 0.  1.
  1000006    1    1    2  501    0  0.66306843382E+03 -0.18151986726E+03 -0.43911766759E+03  0.88765620379E+03  0.35000000000E+03 0.  0.
 -1000006    1    1    2    0  503 -0.55055106123E+03  0.81648324684E+02 -0.95613326500E+03  0.11603722422E+04  0.35000000000E+03 0.  0.
       21    1    1    2  504  501 -0.30180668602E+02 -0.24976411182E+02  0.34493775271E+02  0.52196881183E+02  0.00000000000E+00 0. -1.
       21    1    1    2  505  502 -0.82336703980E+02  0.12484795376E+03 -0.47787219281E+02  0.15700306591E+03  0.00000000000E+00 0.  1.
<scales pt_clust_1="13000.00000" pt_clust_2="13000.00000" pt_clust_3="39.17517" pt_clust_4="149.05146"></scales>
<clustering>
<clus scale="   39.175">  1  5  2 -1</clus>
<clus scale="  149.051">  1  6  2 -1</clus>
<clus scale="  691.632">  2  4  1 -1</clus>
<clus scale="  691.632">  1  3  2 -1</clus>
</clustering>
</event>
<event>
 4   0  0.3464723E-02  0.5598412E+03  0.7816531E-02  0.9992414E-01
       21   -1    0    0  501  502  0.00000000000E+00  0.00000000000E+00  0.21487007918E+04  0.21487007918E+04  0.00000000000E+00 0. -1.
       21   -1    0    0  502  503  0.00000000000E+00  0.00000000000E+00 -0.16472949778E+03  0.16472949778E+03  0.00000000000E+00 0.  1.
  1000006    1    1    2  501    0  0.35148411546E+03  0.25957860339E+03  0.13834148405E+04  0.14924003336E+04  0.35000000000E+03 0.  0.
 -1000006    1    1    2    0  503 -0.35148411546E+03 -0.25957860339E+03  0.60055645346E+03  0.82102995594E+03  0.35000000000E+03 0.  0.
<scales pt_clust_1="13000.00000" pt_clust_2="13000.00000"></scales>
<clustering>
<clus scale="  559.841">  1  3  2 -1</clus>
<clus scale="  559.841">  1  3  2 -1</clus>
</clustering>
</event>
<event>
 6   2  0.3464723E-02  0.7082505E+03  0.7816531E-02  0.9742306E-01
       21   -1    0    0  504  502  0.00000000000E+00  0.00000000000E+00  0.26547772851E+04  0.26547772851E+04  0.00000000000E+00 0.  1.
       21   -1    0    0  501  503  0.00000000000E+00  0.00000000000E+00 -0.56329188115E+03  0.56329188115E+03  0.00000000000E+00 0.  1.
  1000006    1    1    2  501    0  0.13938937217E+03  0.50395918137E+03  0.21232419960E+03  0.66406763157E+03  0.35000000000E+03 0.  0.
 -1000006    1    1    2    0  502  0.51791747141E+03 -0.39290540828E+03  0.25565806411E+03  0.78132849224E+03  0.35000000000E+03 0.  0.
       21    1    1    2  504  505 -0.27423100474E+02 -0.43054275149E+02  0.31218507119E+03  0.31633086432E+03  0.00000000000E+00 0.  1.
       21    1    1    2  505  503 -0.62988374310E+03 -0.67999497943E+02  0.13113180691E+04  0.14563421781E+04  0.00000000000E+00 0.  1.
<scales pt_clust_1="13000.00000" pt_clust_2="13000.00000" pt_clust_3="51.04603" pt_clust_4="615.72620"></scales>
<clustering>
<clus scale="   51.046">  1  5  2 -1</clus>
<clus scale="  621.643">  2  3  1 -1</clus>
<clus scale="  615.726">  1  6  2 -1</clus>
<clus scale="  708.250">  1  3  2 -1</clus>
</clustering>
</event>
<event>
 6   2  0.3464723E-02  0.3501314E+03  0.7816531E-02  0.1062561E+00
       21   -1    0    0  501  502  0.00000000000E+00  0.00000000000E+00  0.13626649189E+03  0.13626649189E+03  0.00000000000E+00 0.  1.
       21   -1    0    0  504  503  0.00000000000E+00  0.00000000000E+00 -0.14714289437E+04  0.14714289437E+04  0.00000000000E+00 0.  1.
  1000006    1    1    2  501    0 -0.59613585479E+01 -0.20040846796E+02 -0.34413560969E+03  0.49129063821E+03  0.35000000000E+03 0.  0.
 -1000006    1    1    2    0  505 -0.85696566943E+01 -0.39196064723E+02 -0.75319544037E+03  0.83151256269E+03  0.35000000000E+03 0.  0.
       21    1    1    2  504  502  0.66464451739E+01  0.29559174668E+02  0.12434424943E+02  0.32749579603E+02  0.00000000000E+00 0. -1.
       21    1    1    2  505  503  0.78845700683E+01  0.29677736850E+02 -0.25026582670E+03  0.25214265511E+03  0.00000000000E+00 0. -1.
<scales pt_clust_1="13000.00000" pt_clust_2="13000.00000" pt_clust_3="30.29720" pt_clust_4="30.95717"></scales>
<clustering>
<clus scale="   30.297">  1  5  2 -1</clus>
<clus scale="   30.957">  2  6  1 -1</clus>
<clus scale="  350.131">  1  3  2 -1</clus>
<clus scale="  350.131">  1  3  2 -1</clus>
</clustering>
</event>
<event>
 6   2  0.3464723E-02  0.5642300E+03  0.7816531E-02  0.9982529E-01
       -1   -1    0    0    0  501  0.00000000000E+00  0.00000000000E+00  0.11291590125E+04  0.11291590125E+04  0.00000000000E+00 0.  1.
       21   -1    0    0  504  503  0.00000000000E+00  0.00000000000E+00 -0.10783123060E+04  0.10783123060E+04  0.00000000000E+00 0. -1.
  1000006    1    1    2  502    0  0.48432739544E+03  0.10569124948E+03 -0.19258325852E+03  0.63665687592E+03  0.35000000000E+03 0.  0.
 -1000006    1    1    2    0  501 -0.26923386974E+03  0.13976164447E+03  0.49737699295E+03  0.67963524556E+03  0.35000000000E+03 0.  0.
       21    1    1    2  504  502  0.50203069932E+02 -0.11210562647E+03 -0.49419596571E+03  0.50923243440E+03  0.00000000000E+00 0. -1.
       -1    1    1    2    0  503 -0.26529659563E+03 -0.13334726748E+03  0.24024893772E+03  0.38194676261E+03  0.00000000000E+00 0.  1.
<scales pt_clust_1="13000.00000" pt_clust_2="13000.00000" pt_clust_3="122.83330" pt_clust_4="297.98022"></scales>
<clustering>
<clus scale="  122.833">  2  5  1 -1</clus>
<clus scale="  297.980">  1  6  2 -1</clus>
<clus scale="  564.230">  1  4  2 -1</clus>
<clus scale="  564.230">  2  3  1 -1</clus>
</clustering>
</event>
<event>
 4   0  0.3464723E-02  0.3982020E+03  0.7816531E-02  0.1044404E+00
       21   -1    0    0  503  502  0.00000000000E+00  0.00000000000E+00  0.10773620022E+04  0.10773620022E+04  0.00000000000E+00 0. -1.
       21   -1    0    0  501  503  0.00000000000E+00  0.00000000000E+00 -0.15799207713E+03  0.15799207713E+03  0.00000000000E+00 0. -1.
  1000006    1    1    2  501    0  0.21878977485E+02 -0.18864292599E+03  0.29809196585E+03  0.49741699135E+03  0.35000000000E+03 0.  0.
 -1000006    1    1    2    0  502 -0.21878977485E+02  0.18864292599E+03  0.62127795920E+03  0.73793708795E+03  0.35000000000E+03 0.  0.
<scales pt_clust_1="13000.00000" pt_clust_2="13000.00000"></scales>
<clustering>
<clus scale="  398.202">  1  4  2 -1</clus>
<clus scale="  398.202">  1  3  2 -1</clus>
</clustering>
</event>
<event>
 6   2  0.3464723E-02  0.3565171E+03  0.7816531E-02  0.1059971E+00
       21   -1    0    0  505  502  0.00000000000E+00  0.00000000000E+00  0.16537221258E+04  0.16537221258E+04  0.00000000000E+00 0. -1.
       21   -1    0    0  504  503  0.00000000000E+00  0.00000000000E+00 -0.21774954209E+03  0.21774954209E+03  0.00000000000E+00 0. -1.
  1000006    1    1    2  501    0 -0.41170397005E+00 -0.95565667498E+02  0.59549609645E+03  0.69731525668E+03  0.35000000000E+03 0.  0.
 -1000006    1    1    2    0  502  0.13773706202E+02  0.40128561739E+02  0.64729858198E+03  0.73708579601E+03  0.35000000000E+03 0.  0.
       21    1    1    2  504  501 -0.36603076160E+02  0.34760012481E+02 -0.11590826811E+03  0.12642298157E+03  0.00000000000E+00 0. -1.
       21    1    1    2  505  503  0.23241073928E+02  0.20677093277E+02  0.30908617335E+03  0.31064763360E+03  0.00000000000E+00 0. -1.
<scales pt_clust_1="13000.00000" pt_clust_2="13000.00000" pt_clust_3="50.46807" pt_clust_4="31.10771"></scales>
<clustering>
<clus scale="   31.108">  1  6  2 -1</clus>
<clus scale="   50.468">  2  5  1 -1</clus>
<clus scale="  356.517">  2  3  1 -1</clus>
<clus scale="  356.517">  1  3  2 -1</clus>
</clustering>
</event>
<event>
 6   2  0.3464723E-02  0.3791304E+03  0.7816531E-02  0.1051256E+00
       21   -1    0    0  505  502  0.00000000000E+00  0.00000000000E+00  0.82685679972E+03  0.82685679972E+03  0.00000000000E+00 0. -1.
       21   -1    0    0  501  503  0.00000000000E+00  0.00000000000E+00 -0.26941129978E+03  0.26941129978E+03  0.00000000000E+00 0. -1.
  1000006    1    1    2  501    0 -0.39774791406E+02 -0.17871416202E+03  0.14748480351E+03  0.42163082549E+03  0.35000000000E+03 0.  0.
 -1000006    1    1    2    0  502 -0.63058152684E+02  0.12392425871E+03  0.39958891908E+03  0.54909457908E+03  0.35000000000E+03 0.  0.
       21    1    1    2  504  503  0.38061537359E+02  0.42716565162E+01 -0.12476674766E+02  0.40281448444E+02  0.00000000000E+00 0. -1.
       21    1    1    2  505  504  0.64771406731E+02  0.50518246793E+02  0.22848452107E+02  0.85261246487E+02  0.00000000000E+00 0.  1.
<scales pt_clust_1="13000.00000" pt_clust_2="13000.00000" pt_clust_3="31.11858" pt_clust_4="125.11353"></scales>
<clustering>
<clus scale="   31.119">  5  6 -1 -1</clus>
<clus scale="  125.114">  2  5  1 -1</clus>
<clus scale="  379.130">  2  3  1 -1</clus>
<clus scale="  379.130">  1  3  2 -1</clus>
</clustering>
</event>
<event>
 5   1  0.3464723E-02  0.7719595E+03  0.7816531E-02  0.9601516E-01
       21   -1    0    0  503  502  0.00000000000E+00  0.00000000000E+00  0.22558789055E+04  0.22558789055E+04  0.00000000000E+00 0.  1.
       21   -1    0    0  501  503  0.00000000000E+00  0.00000000000E+00 -0.46049321297E+03  0.46049321297E+03  0.00000000000E+00 0. -1.
  1000006    1    1    2  501    0 -0.67095520143E+03  0.24843862074E+03  0.17358852342E+03  0.81519053360E+03  0.35000000000E+03 0.  0.
 -1000006    1    1    2    0  504  0.62762871755E+03 -0.12030821273E+03  0.85860713502E+03  0.11260986127E+04  0.35000000000E+03 0.  0.
       21    1    1    2  504  502  0.43326483889E+02 -0.12813040801E+03  0.76319003413E+03  0.77508297224E+03  0.00000000000E+00 0.  1.
<scales pt_clust_1="13000.00000" pt_clust_2="13000.00000" pt_clust_3="135.25748"></scales>
<clustering>
<clus scale="  135.257">  1  5  2 -1</clus>
<clus scale="  771.959">  2  3  1 -1</clus>
<clus scale="  771.959">  1  3  2 -1</clus>
</clustering>
</event>
<event>
 5   1  0.3464723E-02  0.3730375E+03  0.7816531E-02  0.1053538E+00
       21   -1    0    0  504  502  0.00000000000E+00  0.00000000000E+00  0.19771028278E+04  0.19771028278E+04  0.00000000000E+00 0. -1.
       21   -1    0    0  502  503  0.00000000000E+00  0.00000000000E+00 -0.10207332634E+03  0.10207332634E+03  0.00000000000E+00 0. -1.
  1000006    1    1    2  501    0 -0.61787282185E+01 -0.10103187482E+03  0.75181141574E+03  0.83544360746E+03  0.35000000000E+03 0.  0.
 -1000006    1    1    2    0  503  0.12592884930E+03  0.11682626006E+03  0.67482513167E+03  0.77935576501E+03  0.35000000000E+03 0.  0.
       21    1    1    2  504  501 -0.11975012108E+03 -0.15794385242E+02  0.44839295405E+03  0.46437678166E+03  0.00000000000E+00 0. -1.
<scales pt_clust_1="13000.00000" pt_clust_2="13000.00000" pt_clust_3="120.78723"></scales>
<clustering>
<clus scale="  120.787">  1  5  2 -1</clus>
<clus scale="  373.038">  1  3  2 -1</clus>
<clus scale="  373.038">  1  3  2 -1</clus>
</clustering>
</event>
<event>
 5   1  0.3464723E-02  0.4061643E+03  0.7816531E-02  0.1041666E+00
       21   -1    0    0  504  502  0.00000000000E+00  0.00000000000E+00  0.45190475585E+03  0.45190475585E+03  0.00000000000E+00 0.  1.
       21   -1    0    0  501  503  0.00000000000E+00  0.00000000000E+00 -0.51913189116E+03  0.51913189116E+03  0.00000000000E+00 0.  1.
  1000006    1    1    2  501    0  0.16850607403E+03  0.15097608925E+03 -0.19063219635E+03  0.45828889447E+03  0.35000000000E+03 0.  0.
 -1000006    1    1    2    0  502 -0.17791093123E+03 -0.91051061842E+02  0.16882193909E+03  0.43697075695E+03  0.35000000000E+03 0.  0.
       21    1    1    2  504  503  0.94048571958E+01 -0.59925027409E+02 -0.45416878053E+02  0.75776995592E+02  0.00000000000E+00 0. -1.
<scales pt_clust_1="13000.00000" pt_clust_2="13000.00000" pt_clust_3="60.65855"></scales>
<clustering>
<clus scale="   60.659">  2  5  1 -1</clus>
<clus scale="  406.164">  1  4  2 -1</clus>
<clus scale="  406.164">  1  3  2 -1</clus>
</clustering>
</event>
<event>
 6   2  0.3464723E-02  0.7538875E+03  0.7816531E-02  0.9860184E-01
        4   -1    0    0  501    0  0.00000000000E+00  0.00000000000E+00  0.24707149117E+04  0.24707149117E+04  0.00000000000E+00 0.  1.
       21   -1    0    0  504  503  0.00000000000E+00  0.00000000000E+00 -0.97521177765E+03  0.97521177765E+03  0.00000000000E+00 0. -1.
  1000006    1    1    2  501    0  0.22498408122E+03  0.61767518871E+03  0.33900854107E+03  0.81827090041E+03  0.35000000000E+03 0.  0.
 -1000006    1    1    2    0  503 -0.73580071283E+01 -0.56749904187E+01  0.81796657340E+02  0.35955116317E+03  0.35000000000E+03 0.  0.
       21    1    1    2  504  502  0.31785004858E+02  0.10596080884E+02 -0.52886822063E+03  0.52992844635E+03  0.00000000000E+00 0. -1.
        4    1    1    2  502    0 -0.24941107895E+03 -0.62259627917E+03  0.16035661562E+04  0.17381761794E+04  0.00000000000E+00 0.  1.
<scales pt_clust_1="13000.00000" pt_clust_2="13000.00000" pt_clust_3="33.50468" pt_clust_4="667.71724"></scales>
<clustering>
<clus scale="   33.505">  2  5  1 -1</clus>
<clus scale="  350.017">  2  4  1 -1</clus>
<clus scale="  667.717">  1  6  2 -1</clus>
<clus scale="  753.887">  2  3  1 -1</clus>
</clustering>
</event>
<event>
 5   1  0.3464723E-02  0.3733058E+03  0.7816531E-02  0.1053436E+00
       21   -1    0    0  501  502  0.00000000000E+00  0.00000000000E+00  0.62980587280E+03  0.62980587280E+03  0.00000000000E+00 0.  1.
       21   -1    0    0  504  503  0.00000000000E+00  0.00000000000E+00 -0.27261459568E+03  0.27261459568E+03  0.00000000000E+00 0.  1.
  1000006    1    1    2  501    0  0.13238540023E+02 -0.12995970271E+03  0.27603585733E+03  0.46450035285E+03  0.35000000000E+03 0.  0.
 -1000006    1    1    2    0  503  0.29020928761E+02  0.12860033635E+03  0.35489093761E+02  0.37568568856E+03  0.35000000000E+03 0.  0.
       21    1    1    2  504  502 -0.42259468785E+02  0.13593663515E+01  0.45666326030E+02  0.62234427063E+02  0.00000000000E+00 0. -1.
<scales pt_clust_1="13000.00000" pt_clust_2="13000.00000" pt_clust_3="42.28133"></scales>
<clustering>
<clus scale="   42.281">  1  5  2 -1</clus>
<clus scale="  373.306">  2  4  1 -1</clus>
<clus scale="  373.306">  1  3  2 -1</clus>
</clustering>
</event>
<event>
 5   1  0.3464723E-02  0.4605084E+03  0.7816531E-02  0.1024634E+00
       21   -1    0    0  504  502  0.00000000000E+00  0.00000000000E+00  0.21786812659E+03  0.21786812659E+03  0.00000000000E+00 0. -1.
       21   -1    0    0  501  503  0.00000000000E+00  0.00000000000E+00 -0.17824983055E+04  0.17824983055E+04  0.00000000000E+00 0. -1.
  1000006    1    1    2  501    0  0.43122921856E+02  0.26170739476E+03 -0.11776786131E+04  0.12568919057E+04  0.35000000000E+03 0.  0.
 -1000006    1    1    2    0  502 -0.46604167306E+02 -0.30434339895E+03 -0.13132943587E+03  0.48429771176E+03  0.35000000000E+03 0.  0.
       21    1    1    2  504  503  0.34812454495E+01  0.42636004188E+02 -0.25562212992E+03  0.25917681460E+03  0.00000000000E+00 0.  1.
<scales pt_clust_1="13000.00000" pt_clust_2="13000.00000" pt_clust_3="42.77789"></scales>
<clustering>
<clus scale="   42.778">  2  5  1 -1</clus>
<clus scale="  460.508">  2  3  1 -1</clus>
<clus scale="  460.508">  1  3  2 -1</clus>
</clustering>
</event>
<event>
 5   1  0.3464723E-02  0.4033653E+03  0.7816531E-02  0.1042621E+00
       21   -1    0    0  504  502  0.00000000000E+00  0.00000000000E+00  0.25227992690E+04  0.25227992690E+04  0.00000000000E+00 0. -1.
       21   -1    0    0  501  503  0.00000000000E+00  0.00000000000E+00 -0.19110993249E+03  0.19110993249E+03  0.00000000000E+00 0. -1.
  1000006    1    1    2  501    0  0.14912263021E+03 -0.66522853552E+02  0.71333471551E+03  0.81117770263E+03  0.35000000000E+03 0.  0.
 -1000006    1    1    2    0  502 -0.20670905771E+03  0.72938634062E+02  0.17291057371E+04  0.17777388247E+04  0.35000000000E+03 0.  0.
       21    1    1    2  504  503  0.57586427496E+02 -0.64157805101E+01 -0.11075111610E+03  0.12499267414E+03  0.00000000000E+00 0. -1.
<scales pt_clust_1="13000.00000" pt_clust_2="13000.00000" pt_clust_3="57.94272"></scales>
<clustering>
<clus scale="   57.943">  2  5  1 -1</clus>
<clus scale="  403.365">  2  3  1 -1</clus>
<clus scale="  403.365">  1  3  2 -1</clus>
</clustering>
</event>
<event>
 4   0  0.3464723E-02  0.3666963E+03  0.7816531E-02  0.1055963E+00
       21   -1    0    0  503  502  0.00000000000E+00  0.00000000000E+00  0.27939737879E+03  0.27939737879E+03  0.00000000000E+00 0.  1.
       21   -1    0    0  501  503  0.00000000000E+00  0.00000000000E+00 -0.67473384812E+03  0.67473384812E+03  0.00000000000E+00 0.  1.
  1000006    1    1    2  501    0  0.89299595441E+02  0.63180649926E+02 -0.45312018472E+03  0.58291003943E+03  0.35000000000E+03 0.  0.
 -1000006    1    1    2    0  502 -0.89299595441E+02 -0.63180649926E+02  0.57783715388E+02  0.37122118748E+03  0.35000000000E+03 0.  0.
<scales pt_clust_1="13000.00000" pt_clust_2="13000.00000"></scales>
<clustering>
<clus scale="  366.696">  2  3  1 -1</clus>
<clus scale="  366.696">  1  3  2 -1</clus>
</clustering>
</event>
<event>
 5   1  0.3464723E-02  0.3741054E+03  0.7816531E-02  0.1053134E+00
       21   -1    0    0  503  502  0.00000000000E+00  0.00000000000E+00  0.17391855114E+03  0.17391855114E+03  0.00000000000E+00 0.  1.
       21   -1    0    0  501  503  0.00000000000E+00  0.00000000000E+00 -0.13726212904E+04  0.13726212904E+04  0.00000000000E+00 0.  1.
  1000006    1    1    2  501    0  0.52183039061E+02 -0.91929262439E+02 -0.73167190559E+03  0.81793510518E+03  0.35000000000E+03 0.  0.
 -1000006    1    1    2    0  504 -0.12513289932E+03  0.12421403379E+03 -0.50583931549E+03  0.63989122652E+03  0.35000000000E+03 0.  0.
       21    1    1    2  504  502  0.72949860259E+02 -0.32284771348E+02  0.38808481798E+02  0.88713509863E+02  0.00000000000E+00 0.  1.
<scales pt_clust_1="13000.00000" pt_clust_2="13000.00000" pt_clust_3="79.77461"></scales>
<clustering>
<clus scale="   79.775">  1  5  2 -1</clus>
<clus scale="  374.105">  2  3  1 -1</clus>
<clus scale="  374.105">  1  3  2 -1</clus>
</clustering>
</event>
<event>
 6   2  0.3464723E-02  0.4167603E+03  0.7816531E-02  0.1038126E+00
       21   -1    0    0  505  502  0.00000000000E+00  0.00000000000E+00  0.55926409280E+03  0.55926409280E+03  0.00000000000E+00 0. -1.
       21   -1    0    0  504  503  0.00000000000E+00  0.00000000000E+00 -0.40068895593E+03  0.40068895593E+03  0.00000000000E+00 0. -1.
  1000006    1    1    2  501    0 -0.13773032347E+03 -0.13975150606E+03  0.32397514280E+02  0.40255400182E+03  0.35000000000E+03 0.  0.
 -1000006    1    1    2    0  502  0.18989573182E+03  0.16668214756E+03  0.12787483131E+03  0.45021694744E+03  0.35000000000E+03 0.  0.
       21    1    1    2  504  501 -0.31483909730E+02 -0.60232668727E+02 -0.72455815117E+00  0.67968639374E+02  0.00000000000E+00 0. -1.
       21    1    1    2  505  503 -0.20681498620E+02  0.33302027234E+02 -0.97265057505E+00  0.39213460089E+02  0.00000000000E+00 0. -1.
<scales pt_clust_1="13000.00000" pt_clust_2="13000.00000" pt_clust_3="66.23603" pt_clust_4="39.20140"></scales>
<clustering>
<clus scale="   39.201">  2  6  1 -1</clus>
<clus scale="   66.236">  2  5  1 -1</clus>
<clus scale="  416.760">  2  3  1 -1</clus>
<clus scale="  416.760">  1  3  2 -1</clus>
</clustering>
</event>
<event>
 5   1  0.3464723E-02  0.3985154E+03  0.7816531E-02  0.1044295E+00
       21   -1    0    0  503  502  0.00000000000E+00  0.00000000000E+00  0.88394685937E+03  0.88394685937E+03  0.00000000000E+00 0. -1.
       21   -1    0    0  501  503  0.00000000000E+00  0.00000000000E+00 -0.63318588134E+03  0.63318588134E+03  0.00000000000E+00 0. -1.
  1000006    1    1    2  501    0  0.15039878677E+03  0.55151963000E+02 -0.35775323599E+03  0.52549872687E+03  0.35000000000E+03 0.  0.
 -1000006    1    1    2    0  504 -0.36385133144E+03  0.42053469425E+02  0.25442692991E+03  0.56691211695E+03  0.35000000000E+03 0.  0.
       21    1    1    2  504  502  0.21345254467E+03 -0.97205432425E+02  0.35408728411E+03  0.42472189688E+03  0.00000000000E+00 0. -1.
<scales pt_clust_1="13000.00000" pt_clust_2="13000.00000" pt_clust_3="234.54399"></scales>
<clustering>
<clus scale="  234.544">  1  5  2 -1</clus>
<clus scale="  398.515">  2  3  1 -1</clus>
<clus scale="  398.515">  1  3  2 -1</clus>
</clustering>
</event>
<event>
 5   1  0.3464723E-02  0.3518966E+03  0.7816531E-02  0.1061839E+00
       21   -1    0    0  501  502  0.00000000000E+00  0.00000000000E+00  0.22864495527E+03  0.22864495527E+03  0.00000000000E+00 0. -1.
       21   -1    0    0  504  503  0.00000000000E+00  0.00000000000E+00 -0.81945569226E+03  0.81945569226E+03  0.00000000000E+00 0. -1.
  1000006    1    1    2  501    0 -0.30153080377E+02  0.14097455701E+02 -0.15262847790E+02  0.35191035938E+03  0.35000000000E+03 0.  0.
 -1000006    1    1    2    0  503  0.23915205484E+02 -0.49756981469E+02 -0.53646947527E+03  0.64292082884E+03  0.35000000000E+03 0.  0.
       21    1    1    2  504  502  0.62378748927E+01  0.35659525768E+02 -0.39078413929E+02  0.53269459322E+02  0.00000000000E+00 0. -1.
<scales pt_clust_1="13000.00000" pt_clust_2="13000.00000" pt_clust_3="36.20101"></scales>
<clustering>
<clus scale="   36.201">  2  5  1 -1</clus>
<clus scale="  351.897">  1  3  2 -1</clus>
<clus scale="  351.897">  1  3  2 -1</clus>
</clustering>
</event>
<event>
 4   0  0.3464723E-02  0.4442968E+03  0.7816531E-02  0.1029437E+00
       21   -1    0    0  503  502  0.00000000000E+00  0.00000000000E+00  0.53786056160E+03  0.53786056160E+03  0.00000000000E+00 0.  1.
       21   -1    0    0  501  503  0.00000000000E+00  0.00000000000E+00 -0.37680502108E+03  0.37680502108E+03  0.00000000000E+00 0.  1.
  1000006    1    1    2  501    0 -0.26706370185E+03 -0.59804541900E+02  0.67880571036E+01  0.44434860391E+03  0.35000000000E+03 0.  0.
 -1000006    1    1    2    0  502  0.26706370185E+03  0.59804541900E+02  0.15426748342E+03  0.47031697877E+03  0.35000000000E+03 0.  0.
<scales pt_clust_1="13000.00000" pt_clust_2="13000.00000"></scales>
<clustering>
<clus scale="  444.297">  2  3  1 -1</clus>
<clus scale="  444.297">  1  3  2 -1</clus>
</clustering>
</event>
<event>
 4   0  0.3464723E-02  0.4341549E+03  0.7816531E-02  0.1032555E+00
       21   -1    0    0  501  502  0.00000000000E+00  0.00000000000E+00  0.52116514310E+03  0.52116514310E+03  0.00000000000E+00 0.  1.
       21   -1    0    0  502  503  0.00000000000E+00  0.00000000000E+00 -0.61963238448E+03  0.61963238448E+03  0.00000000000E+00 0.  1.
  1000006    1    1    2  501    0 -0.24697447917E+03  0.70668631762E+02  0.31880098850E+03  0.53863208143E+03  0.35000000000E+03 0.  0.
 -1000006    1    1    2    0  503  0.24697447917E+03 -0.70668631762E+02 -0.41726822988E+03  0.60216544615E+03  0.35000000000E+03 0.  0.
<scales pt_clust_1="13000.00000" pt_clust_2="13000.00000"></scales>
<clustering>
<clus scale="  434.155">  1  3  2 -1</clus>
<clus scale="  434.155">  1  3  2 -1</clus>
</clustering>
</event>
<event>
 5   1  0.3464723E-02  0.3520665E+03  0.7816531E-02  0.1061770E+00
       21   -1    0    0  503  502  0.00000000000E+00  0.00000000000E+00  0.16732891203E+04  0.16732891203E+04  0.00000000000E+00 0.  1.
       21   -1    0    0  501  503  0.00000000000E+00  0.00000000000E+00 -0.84117363150E+02  0.84117363150E+02  0.00000000000E+00 0.  1.
  1000006    1    1    2  501    0 -0.10321595922E+02  0.38712977563E+02  0.60933660558E+03  0.70384396629E+03  0.35000000000E+03 0.  0.
 -1000006    1    1    2    0  504  0.36676683781E+02 -0.21567548273E+02  0.85532389393E+03  0.92514285480E+03  0.35000000000E+03 0.  0.
       21    1    1    2  504  502 -0.26355087859E+02 -0.17145429290E+02  0.12451125765E+03  0.12841966237E+03  0.00000000000E+00 0. -1.
<scales pt_clust_1="13000.00000" pt_clust_2="13000.00000" pt_clust_3="31.44132"></scales>
<clustering>
<clus scale="   31.441">  1  5  2 -1</clus>
<clus scale="  352.066">  1  4  2 -1</clus>
<clus scale="  352.066">  1  3  2 -1</clus>
</clustering>
</event>
<event>
 5   1  0.3464723E-02  0.4412017E+03  0.7816531E-02  0.1030379E+00
       21   -1    0    0  501  502  0.00000000000E+00  0.00000000000E+00  0.51116590347E+03  0.51116590347E+03  0.00000000000E+00 0.  1.
       21   -1    0    0  504  503  0.00000000000E+00  0.00000000000E+00 -0.34748400106E+04  0.34748400106E+04  0.00000000000E+00 0. -1.
  1000006    1    1    2  501    0 -0.21679192179E+03  0.14935469279E+03 -0.16521834376E+04  0.17092441818E+04  0.35000000000E+03 0.  0.
 -1000006    1    1    2    0  503  0.18528906536E+03 -0.20670286917E+03 -0.17639291239E+04  0.18196164617E+04  0.35000000000E+03 0.  0.
       21    1    1    2  504  502  0.31502856435E+02  0.57348176377E+02  0.45243845438E+03  0.45714527045E+03  0.00000000000E+00 0.  1.
<scales pt_clust_1="13000.00000" pt_clust_2="13000.00000" pt_clust_3="65.43121"></scales>
<clustering>
<clus scale="   65.431">  1  5  2 -1</clus>
<clus scale="  441.202">  2  4  1 -1</clus>
<clus scale="  441.202">  1  3  2 -1</clus>
</clustering>
</event>
<event>
 6   2  0.3464723E-02  0.4595504E+03  0.7816531E-02  0.1024912E+00
       21   -1    0    0  501  503  0.00000000000E+00  0.00000000000E+00  0.43906030644E+03  0.43906030644E+03  0.00000000000E+00 0. -1.
        2   -1    0    0  504    0  0.00000000000E+00  0.00000000000E+00 -0.13966198700E+04  0.13966198700E+04  0.00000000000E+00 0. -1.
  1000006    1    1    2  501    0  0.29243870037E+03 -0.37190379994E+02  0.27356025395E+02  0.45842324326E+03  0.35000000000E+03 0.  0.
 -1000006    1    1    2    0  502 -0.30316214954E+03 -0.10873904044E+03 -0.11807007853E+03  0.49007347538E+03  0.35000000000E+03 0.  0.
       21    1    1    2  504  503 -0.27618174706E+02  0.12909669863E+02 -0.37470571982E+03  0.37594387828E+03  0.00000000000E+00 0.  1.
        2    1    1    2  502    0  0.38341623876E+02  0.13301975057E+03 -0.49213979063E+03  0.51123957954E+03  0.00000000000E+00 0. -1.
<scales pt_clust_1="13000.00000" pt_clust_2="13000.00000" pt_clust_3="30.48644" pt_clust_4="141.54638"></scales>
<clustering>
<clus scale="   30.486">  2  5  1 -1</clus>
<clus scale="  141.546">  2  6  1 -1</clus>
<clus scale="  459.550">  1  3  2 -1</clus>
<clus scale="  459.550">  1  3  2 -1</clus>
</clustering>
</event>
<event>
 5   1  0.3464723E-02  0.3812945E+03  0.7816531E-02  0.1050456E+00
       21   -1    0    0  501  502  0.00000000000E+00  0.00000000000E+00  0.90595351949E+03  0.90595351949E+03  0.00000000000E+00 0. -1.
       21   -1    0    0  504  503  0.00000000000E+00  0.00000000000E+00 -0.23324660157E+03  0.23324660157E+03  0.00000000000E+00 0. -1.
  1000006    1    1    2  501    0 -0.51332325311E+02 -0.11769679766E+03  0.52311206695E+03  0.64236576683E+03  0.35000000000E+03 0.  0.
 -1000006    1    1    2    0  503  0.91020333401E+02  0.13225812629E+03  0.49572729170E+02  0.38824524278E+03  0.35000000000E+03 0.  0.
       21    1    1    2  504  502 -0.39688008089E+02 -0.14561328638E+02  0.10002212180E+03  0.10858911145E+03  0.00000000000E+00 0.  1.
<scales pt_clust_1="13000.00000" pt_clust_2="13000.00000" pt_clust_3="42.27494"></scales>
<clustering>
<clus scale="   42.275">  1  5  2 -1</clus>
<clus scale="  381.294">  1  3  2 -1</clus>
<clus scale="  381.294">  1  3  2 -1</clus>
</clustering>
</event>
<event>
 6   2  0.3464723E-02  0.3659917E+03  0.7816531E-02  0.1056236E+00
       21   -1    0    0  505  502  0.00000000000E+00  0.00000000000E+00  0.18301506265E+03  0.18301506265E+03  0.00000000000E+00 0.  1.
       21   -1    0    0  504  503  0.00000000000E+00  0.00000000000E+00 -0.15789580963E+04  0.15789580963E+04  0.00000000000E+00 0.  1.
  1000006    1    1    2  501    0 -0.56949773535E+02 -0.60785028086E+02 -0.51640715575E+03  0.62937623633E+03  0.35000000000E+03 0.  0.
 -1000006    1    1    2    0  503  0.13748372595E+03  0.39742111276E+02 -0.74509246835E+03  0.83555011621E+03  0.35000000000E+03 0.  0.
       21    1    1    2  504  502 -0.35412615842E+02 -0.33074247915E+02 -0.19697079955E+03  0.20284342511E+03  0.00000000000E+00 0. -1.
       21    1    1    2  505  501 -0.45121336572E+02  0.54117164724E+02  0.62527390051E+02  0.94203381247E+02  0.00000000000E+00 0. -1.
<scales pt_clust_1="13000.00000" pt_clust_2="13000.00000" pt_clust_3="48.45575" pt_clust_4="70.43083"></scales>
<clustering>
<clus scale="   48.456">  2  5  1 -1</clus>
<clus scale="   70.431">  1  6  2 -1</clus>
<clus scale="  365.992">  1  3  2 -1</clus>
<clus scale="  365.992">  1  3  2 -1</clus>
</clustering>
</event>
<event>
 6   2  0.3464723E-02  0.4377424E+03  0.7816531E-02  0.1031442E+00
       21   -1    0    0  505  502  0.00000000000E+00  0.00000000000E+00  0.53911152695E+03  0.53911152695E+03  0.00000000000E+00 0.  1.
       21   -1    0    0  502  503  0.00000000000E+00  0.00000000000E+00 -0.53869827750E+03  0.53869827750E+03  0.00000000000E+00 0.  1.
  1000006    1    1    2  501    0  0.28083413586E+03  0.34621153371E+02  0.11698140639E+03  0.46502804815E+03  0.35000000000E+03 0.  0.
 -1000006    1    1    2    0  504 -0.23794148378E+03 -0.22495435090E+02 -0.93430940604E+01  0.42392155844E+03  0.35000000000E+03 0.  0.
       21    1    1    2  504  503 -0.35859304931E+02 -0.43147033259E+02 -0.13527681960E+03  0.14644922038E+03  0.00000000000E+00 0.  1.
       21    1    1    2  505  501 -0.70333471529E+01  0.31021314978E+02  0.28051756720E+02  0.42410977473E+02  0.00000000000E+00 0.  1.
<scales pt_clust_1="13000.00000" pt_clust_2="13000.00000" pt_clust_3="55.88913" pt_clust_4="31.80865"></scales>
<clustering>
<clus scale="   31.809">  1  6  2 -1</clus>
<clus scale="   55.889">  2  5  1 -1</clus>
<clus scale="  437.742">  2  4  1 -1</clus>
<clus scale="  437.742">  1  3  2 -1</clus>
</clustering>
</event>
<event>
 6   2  0.3464723E-02  0.3820135E+03  0.7816531E-02  0.1050192E+00
        2   -1    0    0  504    0  0.00000000000E+00  0.00000000000E+00  0.97765253684E+03  0.97765253684E+03  0.00000000000E+00 0. -1.
       21   -1    0    0  501  503  0.00000000000E+00  0.00000000000E+00 -0.48299350334E+03  0.48299350334E+03  0.00000000000E+00 0. -1.
  1000006    1    1    2  501    0  0.54371957008E+01  0.15869693311E+03 -0.18069750941E+03  0.42469503127E+03  0.35000000000E+03 0.  0.
 -1000006    1    1    2    0  502 -0.35342605380E+02 -0.14031399174E+03  0.67351905820E+02  0.38467310180E+03  0.35000000000E+03 0.  0.
       21    1    1    2  504  503  0.66780218527E+02 -0.25333455578E+02  0.39660963327E+02  0.81696839413E+02  0.00000000000E+00 0.  1.
        2    1    1    2  502    0 -0.36874808848E+02  0.69505142172E+01  0.56834367377E+03  0.56958106770E+03  0.00000000000E+00 0. -1.
<scales pt_clust_1="13000.00000" pt_clust_2="13000.00000" pt_clust_3="65.94626" pt_clust_4="37.52414"></scales>
<clustering>
<clus scale="   37.524">  1  6  2 -1</clus>
<clus scale="   65.946">  1  5  2 -1</clus>
<clus scale="  382.014">  2  3  1 -1</clus>
<clus scale="  382.014">  2  3  1 -1</clus>
</clustering>
</event>
<event>
 6   2  0.3464723E-02  0.8213295E+03  0.7816531E-02  0.9768619E-01
       21   -1    0    0  504  503  0.00000000000E+00  0.00000000000E+00  0.13231172021E+04  0.13231172021E+04  0.00000000000E+00 0.  1.
       -2   -1    0    0    0  501  0.00000000000E+00  0.00000000000E+00 -0.10445067152E+04  0.10445067152E+04  0.00000000000E+00 0. -1.
  1000006    1    1    2  502    0 -0.29939819132E+03  0.74633802796E+03  0.30923226700E+03  0.92993780647E+03  0.35000000000E+03 0.  0.
 -1000006    1    1    2    0  503  0.10122307930E+03  0.43798091700E+01  0.34363107894E+03  0.50084689569E+03  0.35000000000E+03 0.  0.
       21    1    1    2  504  501  0.76869499642E+01 -0.51915361360E+02  0.69743995820E+02  0.87284127410E+02  0.00000000000E+00 0. -1.
       -2    1    1    2    0  502  0.19048816205E+03 -0.69880247577E+03 -0.44399685478E+03  0.84955508772E+03  0.00000000000E+00 0. -1.
<scales pt_clust_1="13000.00000" pt_clust_2="13000.00000" pt_clust_3="52.48137" pt_clust_4="743.02234"></scales>
<clustering>
<clus scale="   52.481">  1  5  2 -1</clus>
<clus scale="  365.316">  1  4  2 -1</clus>
<clus scale="  743.022">  2  6  1 -1</clus>
<clus scale="  821.330">  1  3  2 -1</clus>
</clustering>
</event>
<event>
 5   1  0.3464723E-02  0.5225112E+03  0.7816531E-02  0.1008065E+00
       21   -1    0    0  501  502  0.00000000000E+00  0.00000000000E+00  0.19667963654E+04  0.19667963654E+04  0.00000000000E+00 0. -1.
       21   -1    0    0  504  503  0.00000000000E+00  0.00000000000E+00 -0.16032826874E+03  0.16032826874E+03  0.00000000000E+00 0.  1.
  1000006    1    1    2  501    0  0.33767595558E+03  0.22296644936E+03  0.10735098607E+04  0.11994425828E+04  0.35000000000E+03 0.  0.
 -1000006    1    1    2    0  503 -0.33645984799E+03 -0.17271506691E+03  0.63678344749E+03  0.81916352619E+03  0.35000000000E+03 0.  0.
       21    1    1    2  504  502 -0.12161075976E+01 -0.50251382456E+02  0.96174788495E+02  0.10851852514E+03  0.00000000000E+00 0.  1.
<scales pt_clust_1="13000.00000" pt_clust_2="13000.00000" pt_clust_3="50.26610"></scales>
<clustering>
<clus scale="   50.266">  1  5  2 -1</clus>
<clus scale="  522.511">  1  3  2 -1</clus>
<clus scale="  522.511">  1  3  2 -1</clus>
</clustering>
</event>
<event>
 5   1  0.3464723E-02  0.5232149E+03  0.7816531E-02  0.1007891E+00
       21   -1    0    0  504  502  0.00000000000E+00  0.00000000000E+00  0.11827500557E+04  0.11827500557E+04  0.00000000000E+00 0. -1.
       21   -1    0    0  501  503  0.00000000000E+00  0.00000000000E+00 -0.59600098581E+03  0.59600098581E+03  0.00000000000E+00 0. -1.
  1000006    1    1    2  501    0  0.87078320413E+02 -0.36338213819E+03  0.19707311291E+03  0.54860461544E+03  0.35000000000E+03 0.  0.
 -1000006    1    1    2    0  502 -0.13498030642E+03  0.37357876651E+03  0.72140492815E+03  0.89482168518E+03  0.35000000000E+03 0.  0.
       21    1    1    2  504  503  0.47901986010E+02 -0.10196628317E+02 -0.33172897120E+03  0.33532474085E+03  0.00000000000E+00 0. -1.
<scales pt_clust_1="13000.00000" pt_clust_2="13000.00000" pt_clust_3="48.97521"></scales>
<clustering>
<clus scale="   48.975">  2  5  1 -1</clus>
<clus scale="  523.215">  1  4  2 -1</clus>
<clus scale="  523.215">  1  3  2 -1</clus>
</clustering>
</event>
<event>
 6   2  0.3464723E-02  0.3517035E+03  0.7816531E-02  0.1061918E+00
       21   -1    0    0  502  503  0.00000000000E+00  0.00000000000E+00  0.11537481811E+04  0.11537481811E+04  0.00000000000E+00 0.  1.
       21   -1    0    0  503  504  0.00000000000E+00  0.00000000000E+00 -0.22621533253E+03  0.22621533253E+03  0.00000000000E+00 0.  1.
  1000006    1    1    2  501    0  0.83372043287E+02 -0.18380086764E+02  0.23095559773E+03  0.42793599208E+03  0.35000000000E+03 0.  0.
 -1000006    1    1    2    0  504  0.15701293778E+02 -0.50772674352E+02  0.13980633718E+03  0.38061819058E+03  0.35000000000E+03 0.  0.
        4    1    1    2  502    0 -0.37766725541E+02  0.45789564466E+02  0.33180138628E+03  0.33706849409E+03  0.00000000000E+00 0.  1.
       -4    1    1    2    0  501 -0.61306611524E+02  0.23363196650E+02  0.22496952737E+03  0.23434083686E+03  0.00000000000E+00 0. -1.
<scales pt_clust_1="13000.00000" pt_clust_2="13000.00000" pt_clust_3="128.50982" pt_clust_4="128.50982"></scales>
<clustering>
<clus scale="   41.647">  5  6 -1 -1</clus>
<clus scale="  128.510">  1  5  2 -1</clus>
<clus scale="  351.704">  2  4  1 -1</clus>
<clus scale="  351.704">  1  3  2 -1</clus>
</clustering>
</event>
<event>
 6   2  0.3464723E-02  0.4418671E+03  0.7816531E-02  0.1030175E+00
        2   -1    0    0  504    0  0.00000000000E+00  0.00000000000E+00  0.17113985013E+03  0.17113985013E+03  0.00000000000E+00 0.  1.
       21   -1    0    0  501  503  0.00000000000E+00  0.00000000000E+00 -0.17984382803E+04  0.17984382803E+04  0.00000000000E+00 0. -1.
  1000006    1    1    2  501    0 -0.15315818395E+03  0.24408042184E+03 -0.96681457472E+03  0.10678310276E+04  0.35000000000E+03 0.  0.
 -1000006    1    1    2    0  502  0.10596490865E+03 -0.22200514794E+03 -0.60818950829E+03  0.74357872856E+03  0.35000000000E+03 0.  0.
       21    1    1    2  504  503 -0.18598581574E+02 -0.52564921578E+02 -0.63818074737E+02  0.84745058146E+02  0.00000000000E+00 0.  1.
        2    1    1    2  502    0  0.65791856872E+02  0.30489647676E+02  0.11523727611E+02  0.73423316080E+02  0.00000000000E+00 0.  1.
<scales pt_clust_1="13000.00000" pt_clust_2="13000.00000" pt_clust_3="55.75821" pt_clust_4="63.09676"></scales>
<clustering>
<clus scale="   55.758">  1  5  2 -1</clus>
<clus scale="   63.097">  1  6  2 -1</clus>
<clus scale="  441.867">  1  4  2 -1</clus>
<clus scale="  441.867">  2  3  1 -1</clus>
</clustering>
</event>
<event>
 6   2  0.3464723E-02  0.4252995E+03  0.7816531E-02  0.1035355E+00
       21   -1    0    0  504  503  0.00000000000E+00  0.00000000000E+00  0.77758160270E+03  0.77758160270E+03  0.00000000000E+00 0. -1.
        1   -1    0    0  503    0  0.00000000000E+00  0.00000000000E+00 -0.14785379983E+04  0.14785379983E+04  0.00000000000E+00 0. -1.
  1000006    1    1    2  501    0 -0.14254934480E+03  0.72409861925E+02  0.20024192286E+03  0.43377451686E+03  0.35000000000E+03 0.  0.
 -1000006    1    1    2    0  502  0.34845625771E+03 -0.29689533461E+02  0.25096923576E+03  0.55478715669E+03  0.35000000000E+03 0.  0.
       21    1    1    2  504  501 -0.33494366089E+02 -0.22632205470E+02  0.43484659546E+02  0.59371751701E+02  0.00000000000E+00 0. -1.
        1    1    1    2  502    0 -0.17241254682E+03 -0.20088122994E+02 -0.11956522138E+04  0.12081861757E+04  0.00000000000E+00 0. -1.
<scales pt_clust_1="13000.00000" pt_clust_2="13000.00000" pt_clust_3="40.42387" pt_clust_4="173.88866"></scales>
<clustering>
<clus scale="   40.424">  1  5  2 -1</clus>
<clus scale="  173.889">  2  6  1 -1</clus>
<clus scale="  425.300">  2  4  1 -1</clus>
<clus scale="  425.300">  1  3  2 -1</clus>
</clustering>
</event>
<event>
 5   1  0.3464723E-02  0.4563631E+03  0.7816531E-02  0.1025841E+00
       21   -1    0    0  501  502  0.00000000000E+00  0.00000000000E+00  0.42033850227E+03  0.42033850227E+03  0.00000000000E+00 0.  1.
       21   -1    0    0  504  503  0.00000000000E+00  0.00000000000E+00 -0.10736540757E+04  0.10736540757E+04  0.00000000000E+00 0. -1.
  1000006    1    1    2  501    0  0.95614401302E+02 -0.28462363396E+03  0.20107802817E+03  0.50307564059E+03  0.35000000000E+03 0.  0.
 -1000006    1    1    2    0  503 -0.90208076555E+02  0.24162554148E+03 -0.65012306762E+03  0.78209999515E+03  0.35000000000E+03 0.  0.
       21    1    1    2  504  502 -0.54063247466E+01  0.42998092484E+02 -0.20427053400E+03  0.20881694224E+03  0.00000000000E+00 0.  1.
<scales pt_clust_1="13000.00000" pt_clust_2="13000.00000" pt_clust_3="43.33664"></scales>
<clustering>
<clus scale="   43.337">  2  5  1 -1</clus>
<clus scale="  456.363">  1  3  2 -1</clus>
<clus scale="  456.363">  1  3  2 -1</clus>
</clustering>
</event>
<event>
 6   2  0.3464723E-02  0.5022882E+03  0.7816531E-02  0.1024757E+00
       21   -1    0    0  504  503  0.00000000000E+00  0.00000000000E+00  0.11090112393E+04  0.11090112393E+04  0.00000000000E+00 0.  1.
        2   -1    0    0  501    0  0.00000000000E+00  0.00000000000E+00 -0.31038809418E+04  0.31038809418E+04  0.00000000000E+00 0. -1.
  1000006    1    1    2  501    0 -0.29869793815E+03 -0.25687174164E+03  0.19000419992E+03  0.56018313603E+03  0.35000000000E+03 0.  0.
 -1000006    1    1    2    0  503  0.66742939819E+02  0.26479891602E+02  0.54221561420E+03  0.64934857893E+03  0.35000000000E+03 0.  0.
       21    1    1    2  504  502 -0.62032022801E+02  0.23814375885E+02  0.11813420771E+03  0.13553887775E+03  0.00000000000E+00 0.  1.
        2    1    1    2  502    0  0.29398702114E+03  0.20657747415E+03 -0.28452237244E+04  0.28678215884E+04  0.00000000000E+00 0. -1.
<scales pt_clust_1="13000.00000" pt_clust_2="13000.00000" pt_clust_3="66.44619" pt_clust_4="360.26856"></scales>
<clustering>
<clus scale="   66.446">  1  5  2 -1</clus>
<clus scale="  353.585">  1  4  2 -1</clus>
<clus scale="  360.269">  2  6  1 -1</clus>
<clus scale="  502.288">  1  3  2 -1</clus>
</clustering>
</event>
<event>
 5   1  0.3464723E-02  0.4945028E+03  0.7816531E-02  0.1015224E+00
        2   -1    0    0  501    0  0.00000000000E+00  0.00000000000E+00  0.32580433938E+04  0.32580433938E+04  0.00000000000E+00 0. -1.
       21   -1    0    0  502  503  0.00000000000E+00  0.00000000000E+00 -0.97403698516E+02  0.97403698516E+02  0.00000000000E+00 0.  1.
  1000006    1    1    2  501    0 -0.13013264461E+03 -0.32428513092E+03  0.22032294486E+04  0.22580556580E+04  0.35000000000E+03 0.  0.
 -1000006    1    1    2    0  503  0.93539360053E+02  0.33794012971E+03  0.90842365051E+03  0.10347399055E+04  0.35000000000E+03 0.  0.
        2    1    1    2  502    0  0.36593284553E+02 -0.13654998784E+02  0.48986596162E+02  0.62651528870E+02  0.00000000000E+00 0. -1.
<scales pt_clust_1="13000.00000" pt_clust_2="13000.00000" pt_clust_3="39.05800"></scales>
<clustering>
<clus scale="   39.058">  2  5  1 -1</clus>
<clus scale="  889.434">  3  4 -1 -1</clus>
<clus scale="  494.503">  2  3  1 -1</clus>
</clustering>
</event>
<event>
 5   1  0.3464723E-02  0.6298187E+03  0.7816531E-02  0.9845403E-01
       21   -1    0    0  504  502  0.00000000000E+00  0.00000000000E+00  0.12852311370E+04  0.12852311370E+04  0.00000000000E+00 0.  1.
       21   -1    0    0  501  503  0.00000000000E+00  0.00000000000E+00 -0.57229086655E+03  0.57229086655E+03  0.00000000000E+00 0. -1.
  1000006    1    1    2  501    0 -0.20908260072E+03 -0.47161547687E+03 -0.20361464880E+03  0.65581675577E+03  0.35000000000E+03 0.  0.
 -1000006    1    1    2    0  502  0.24174372038E+03  0.46658068227E+03  0.95883478402E+03  0.11480425525E+04  0.35000000000E+03 0.  0.
       21    1    1    2  504  503 -0.32661119663E+02  0.50347946063E+01 -0.42279864767E+02  0.53662695228E+02  0.00000000000E+00 0. -1.
<scales pt_clust_1="13000.00000" pt_clust_2="13000.00000" pt_clust_3="33.04690"></scales>
<clustering>
<clus scale="   33.047">  2  5  1 -1</clus>
<clus scale="  629.819">  1  4  2 -1</clus>
<clus scale="  629.819">  1  3  2 -1</clus>
</clustering>
</event>
<event>
 5   1  0.3464723E-02  0.8111705E+03  0.7816531E-02  0.9543988E-01
        1   -1    0    0  503    0  0.00000000000E+00  0.00000000000E+00  0.14943265696E+04  0.14943265696E+04  0.00000000000E+00 0. -1.
       -1   -1    0    0    0  501  0.00000000000E+00  0.00000000000E+00 -0.53408876723E+03  0.53408876723E+03  0.00000000000E+00 0.  1.
  1000006    1    1    2  502    0  0.59035725931E+02 -0.74062851753E+03  0.82215274102E+03  0.11620890446E+04  0.35000000000E+03 0.  0.
 -1000006    1    1    2    0  501 -0.86476468371E+02  0.72167135954E+03  0.95667542734E+02  0.81236691802E+03  0.35000000000E+03 0.  0.
       21    1    1    2  503  502  0.27440742440E+02  0.18957157999E+02  0.42417518668E+02  0.53959374301E+02  0.00000000000E+00 0. -1.
<scales pt_clust_1="13000.00000" pt_clust_2="13000.00000" pt_clust_3="33.35218"></scales>
<clustering>
<clus scale="   33.352">  1  5  2 -1</clus>
<clus scale=" 1639.350">  3  4 -1 -1</clus>
<clus scale="  811.171">  1  3  2 -1</clus>
</clustering>
</event>
<event>
 4   0  0.3464723E-02  0.3914026E+03  0.7816531E-02  0.1046798E+00
       21   -1    0    0  501  502  0.00000000000E+00  0.00000000000E+00  0.51608279762E+03  0.51608279762E+03  0.00000000000E+00 0. -1.
       21   -1    0    0  502  503  0.00000000000E+00  0.00000000000E+00 -0.33521962884E+03  0.33521962884E+03  0.00000000000E+00 0. -1.
  1000006    1    1    2  501    0 -0.44983530591E+02  0.16932942791E+03  0.23445002380E+03  0.45624860201E+03  0.35000000000E+03 0.  0.
 -1000006    1    1    2    0  503  0.44983530591E+02 -0.16932942791E+03 -0.53586855011E+02  0.39505382445E+03  0.35000000000E+03 0.  0.
<scales pt_clust_1="13000.00000" pt_clust_2="13000.00000"></scales>
<clustering>
<clus scale="  391.403">  1  3  2 -1</clus>
<clus scale="  391.403">  1  3  2 -1</clus>
</clustering>
</event>
<event>
 5   1  0.3464723E-02  0.3916086E+03  0.7816531E-02  0.1046725E+00
       21   -1    0    0  503  502  0.00000000000E+00  0.00000000000E+00  0.12526937140E+03  0.12526937140E+03  0.00000000000E+00 0. -1.
       21   -1    0    0  504  503  0.00000000000E+00  0.00000000000E+00 -0.24569832889E+04  0.24569832889E+04  0.00000000000E+00 0.  1.
  1000006    1    1    2  501    0  0.15333703675E+03 -0.79586011152E+01 -0.67459803977E+03  0.77534386012E+03  0.35000000000E+03 0.  0.
 -1000006    1    1    2    0  502 -0.18452826000E+03 -0.77102097426E+02 -0.48217828552E+03  0.62848334202E+03  0.35000000000E+03 0.  0.
       21    1    1    2  504  501  0.31191223255E+02  0.85060698541E+02 -0.11749375922E+04  0.11784254582E+04  0.00000000000E+00 0.  1.
<scales pt_clust_1="13000.00000" pt_clust_2="13000.00000" pt_clust_3="90.59920"></scales>
<clustering>
<clus scale="   90.599">  2  5  1 -1</clus>
<clus scale="  391.609">  1  4  2 -1</clus>
<clus scale="  391.609">  1  3  2 -1</clus>
</clustering>
</event>
<event>
 5   1  0.3464723E-02  0.3902143E+03  0.7816531E-02  0.1047222E+00
       21   -1    0    0  501  502  0.00000000000E+00  0.00000000000E+00  0.10121355113E+03  0.10121355113E+03  0.00000000000E+00 0.  1.
       21   -1    0    0  504  503  0.00000000000E+00  0.00000000000E+00 -0.27776577569E+04  0.27776577569E+04  0.00000000000E+00 0.  1.
  1000006    1    1    2  501    0  0.18261667472E+01  0.13289222920E+03 -0.11495145324E+04  0.12089447215E+04  0.35000000000E+03 0.  0.
 -1000006    1    1    2    0  503  0.58314827995E+02 -0.20363141382E+03 -0.15230053501E+04  0.15769945049E+04  0.35000000000E+03 0.  0.
       21    1    1    2  504  502 -0.60140994742E+02  0.70739184622E+02 -0.39243232457E+01  0.92932081664E+02  0.00000000000E+00 0.  1.
<scales pt_clust_1="13000.00000" pt_clust_2="13000.00000" pt_clust_3="92.84919"></scales>
<clustering>
<clus scale="   92.849">  1  5  2 -1</clus>
<clus scale="  390.214">  1  3  2 -1</clus>
<clus scale="  390.214">  1  3  2 -1</clus>
</clustering>
</event>
<event>
 5   1  0.3464723E-02  0.4878715E+03  0.7816531E-02  0.1016994E+00
       21   -1    0    0  501  502  0.00000000000E+00  0.00000000000E+00  0.97040252893E+03  0.97040252893E+03  0.00000000000E+00 0.  1.
       21   -1    0    0  502  503  0.00000000000E+00  0.00000000000E+00 -0.49665050589E+03  0.49665050589E+03  0.00000000000E+00 0. -1.
  1000006    1    1    2  501    0 -0.32065004365E+03 -0.14081845529E+03  0.54899137888E+03  0.73928196375E+03  0.35000000000E+03 0.  0.
 -1000006    1    1    2    0  504  0.25180385647E+03  0.21172136427E+03  0.13201843376E+03  0.49815658690E+03  0.35000000000E+03 0.  0.
       21    1    1    2  504  503  0.68846187179E+02 -0.70902908978E+02 -0.20725778960E+03  0.22961448417E+03  0.00000000000E+00 0. -1.
<scales pt_clust_1="13000.00000" pt_clust_2="13000.00000" pt_clust_3="98.82823"></scales>
<clustering>
<clus scale="   98.828">  2  5  1 -1</clus>
<clus scale="  487.872">  1  3  2 -1</clus>
<clus scale="  487.872">  1  3  2 -1</clus>
</clustering>
</event>
<event>
 5   1  0.3464723E-02  0.3643516E+03  0.7816531E-02  0.1056874E+00
       21   -1    0    0  504  502  0.00000000000E+00  0.00000000000E+00  0.18576266414E+04  0.18576266414E+04  0.00000000000E+00 0.  1.
       21   -1    0    0  502  503  0.00000000000E+00  0.00000000000E+00 -0.13244703010E+03  0.13244703010E+03  0.00000000000E+00 0.  1.
  1000006    1    1    2  501    0  0.35401574611E+02 -0.45588993213E+02  0.77063408425E+03  0.84835636356E+03  0.35000000000E+03 0.  0.
 -1000006    1    1    2    0  503  0.97708927013E+01  0.12752518795E+03  0.29419786228E+03  0.47477418430E+03  0.35000000000E+03 0.  0.
       21    1    1    2  504  501 -0.45172467312E+02 -0.81936194737E+02  0.66034766479E+03  0.66694312366E+03  0.00000000000E+00 0.  1.
<scales pt_clust_1="13000.00000" pt_clust_2="13000.00000" pt_clust_3="93.56330"></scales>
<clustering>
<clus scale="   93.563">  1  5  2 -1</clus>
<clus scale="  364.352">  1  3  2 -1</clus>
<clus scale="  364.352">  1  3  2 -1</clus>
</clustering>
</event>
<event>
 5   1  0.3464723E-02  0.3942825E+03  0.7816531E-02  0.1045778E+00
       21   -1    0    0  504  502  0.00000000000E+00  0.00000000000E+00  0.65584651260E+03  0.65584651260E+03  0.00000000000E+00 0. -1.
       21   -1    0    0  501  503  0.00000000000E+00  0.00000000000E+00 -0.39883400200E+03  0.39883400200E+03  0.00000000000E+00 0. -1.
  1000006    1    1    2  501    0 -0.14190602526E+03  0.65007713995E+02 -0.16589836892E+02  0.38358642517E+03  0.35000000000E+03 0.  0.
 -1000006    1    1    2    0  502  0.18122267806E+03 -0.65058797399E+02  0.38387838018E+03  0.55401887778E+03  0.35000000000E+03 0.  0.
       21    1    1    2  504  503 -0.39316652803E+02  0.51083403790E-01 -0.11027603269E+03  0.11707521165E+03  0.00000000000E+00 0. -1.
<scales pt_clust_1="13000.00000" pt_clust_2="13000.00000" pt_clust_3="39.31669"></scales>
<clustering>
<clus scale="   39.317">  2  5  1 -1</clus>
<clus scale="  394.283">  1  4  2 -1</clus>
<clus scale="  394.283">  1  3  2 -1</clus>
</clustering>
</event>
<event>
 6   2  0.3464723E-02  0.5199048E+03  0.7816531E-02  0.1008710E+00
        2   -1    0    0  504    0  0.00000000000E+00  0.00000000000E+00  0.13415124712E+04  0.13415124712E+04  0.00000000000E+00 0.  1.
       21   -1    0    0  502  503  0.00000000000E+00  0.00000000000E+00 -0.10688914657E+04  0.10688914657E+04  0.00000000000E+00 0. -1.
  1000006    1    1    2  501    0 -0.17741390324E+03 -0.30082655443E+03 -0.21877418409E+03  0.54067962097E+03  0.35000000000E+03 0.  0.
 -1000006    1    1    2    0  503  0.68513427035E+02  0.41374811396E+03 -0.55373461482E+03  0.77781978320E+03  0.35000000000E+03 0.  0.
       21    1    1    2  504  501  0.44208127288E+02  0.26554483471E+02  0.20005563729E+02  0.55314751114E+02  0.00000000000E+00 0.  1.
        2    1    1    2  502    0  0.64692348920E+02 -0.13947604300E+03  0.10251242407E+04  0.10365897817E+04  0.00000000000E+00 0.  1.
<scales pt_clust_1="13000.00000" pt_clust_2="13000.00000" pt_clust_3="51.57033" pt_clust_4="154.81230"></scales>
<clustering>
<clus scale="   51.570">  1  5  2 -1</clus>
<clus scale="  154.812">  1  6  2 -1</clus>
<clus scale="  519.905">  1  3  2 -1</clus>
<clus scale="  519.905">  2  3  1 -1</clus>
</clustering>
</event>
<event>
 5   1  0.3464723E-02  0.3548442E+03  0.7816531E-02  0.1060644E+00
       21   -1    0    0  504  502  0.00000000000E+00  0.00000000000E+00  0.29221598413E+03  0.29221598413E+03  0.00000000000E+00 0. -1.
       21   -1    0    0  501  503  0.00000000000E+00  0.00000000000E+00 -0.85021025610E+03  0.85021025610E+03  0.00000000000E+00 0. -1.
  1000006    1    1    2  501    0  0.50444578625E+02 -0.86043401001E+01 -0.63828790350E+03  0.72974662584E+03  0.35000000000E+03 0.  0.
 -1000006    1    1    2    0  502 -0.90895373135E+02  0.21645137120E+02  0.70202347923E+02  0.36899708735E+03  0.35000000000E+03 0.  0.
       21    1    1    2  504  503  0.40450794510E+02 -0.13040797020E+02  0.10091283609E+02  0.43682527036E+02  0.00000000000E+00 0. -1.
<scales pt_clust_1="13000.00000" pt_clust_2="13000.00000" pt_clust_3="42.50093"></scales>
<clustering>
<clus scale="   42.501">  1  5  2 -1</clus>
<clus scale="  354.844">  2  3  1 -1</clus>
<clus scale="  354.844">  1  3  2 -1</clus>
</clustering>
</event>
<event>
 4   0  0.3464723E-02  0.5112162E+03  0.7816531E-02  0.1010892E+00
       -2   -1    0    0    0  501  0.00000000000E+00  0.00000000000E+00  0.35512808976E+03  0.35512808976E+03  0.00000000000E+00 0. -1.
        2   -1    0    0  502    0  0.00000000000E+00  0.00000000000E+00 -0.11034545505E+04  0.11034545505E+04  0.00000000000E+00 0.  1.
  1000006    1    1    2  502    0 -0.32756687443E+03 -0.17760039677E+03 -0.79506369319E+03  0.94523448646E+03  0.35000000000E+03 0.  0.
 -1000006    1    1    2    0  501  0.32756687443E+03  0.17760039677E+03  0.46737232408E+02  0.51334815384E+03  0.35000000000E+03 0.  0.
<scales pt_clust_1="13000.00000" pt_clust_2="13000.00000"></scales>
<clustering>
<clus scale=" 1095.432">  3  4 -1 -1</clus>
<clus scale="  511.216">  2  3  1 -1</clus>
</clustering>
</event>
<event>
 5   1  0.3464723E-02  0.9206879E+03  0.7816531E-02  0.9580003E-01
        1   -1    0    0  501    0  0.00000000000E+00  0.00000000000E+00  0.18756957122E+04  0.18756957122E+04  0.00000000000E+00 0.  1.
       21   -1    0    0  502  503  0.00000000000E+00  0.00000000000E+00 -0.79698155744E+03  0.79698155744E+03  0.00000000000E+00 0.  1.
  1000006    1    1    2  501    0 -0.74065780727E+03  0.66146029403E+02  0.17639497810E+03  0.84057389501E+03  0.35000000000E+03 0.  0.
 -1000006    1    1    2    0  503 -0.23526074077E+03 -0.24929847628E+03  0.63833649149E+03  0.80465571693E+03  0.35000000000E+03 0.  0.
        1    1    1    2  502    0  0.97591854804E+03  0.18315244688E+03  0.26398268515E+03  0.10274476577E+04  0.00000000000E+00 0.  1.
<scales pt_clust_1="13000.00000" pt_clust_2="13000.00000" pt_clust_3="851.56738"></scales>
<clustering>
<clus scale="  489.895">  2  4  1 -1</clus>
<clus scale="  851.567">  1  5  2 -1</clus>
<clus scale="  920.688">  2  3  1 -1</clus>
</clustering>
</event>
<event>
 4   0  0.3464723E-02  0.3643564E+03  0.7816531E-02  0.1056872E+00
       21   -1    0    0  503  502  0.00000000000E+00  0.00000000000E+00  0.12285321472E+03  0.12285321472E+03  0.00000000000E+00 0.  1.
       21   -1    0    0  501  503  0.00000000000E+00  0.00000000000E+00 -0.14076915788E+04  0.14076915788E+04  0.00000000000E+00 0.  1.
  1000006    1    1    2  501    0  0.26735888485E+02 -0.97676843706E+02 -0.10113074711E+04  0.10749411029E+04  0.35000000000E+03 0.  0.
 -1000006    1    1    2    0  502 -0.26735888485E+02  0.97676843706E+02 -0.27353089300E+03  0.45560369067E+03  0.35000000000E+03 0.  0.
<scales pt_clust_1="13000.00000" pt_clust_2="13000.00000"></scales>
<clustering>
<clus scale="  364.356">  2  3  1 -1</clus>
<clus scale="  364.356">  1  3  2 -1</clus>
</clustering>
</event>
<event>
 6   2  0.3464723E-02  0.4231070E+03  0.7816531E-02  0.1036060E+00
       21   -1    0    0  504  502  0.00000000000E+00  0.00000000000E+00  0.10886629432E+04  0.10886629432E+04  0.00000000000E+00 0.  1.
       21   -1    0    0  501  503  0.00000000000E+00  0.00000000000E+00 -0.73246946848E+03  0.73246946848E+03  0.00000000000E+00 0. -1.
  1000006    1    1    2  501    0 -0.18880442442E+03  0.97593663524E+02 -0.35447234078E+03  0.54159235059E+03  0.35000000000E+03 0.  0.
 -1000006    1    1    2    0  502  0.18653791922E+03 -0.48372496375E+03  0.52542130614E+03  0.81691724477E+03  0.35000000000E+03 0.  0.
       21    1    1    2  504  505  0.67087906424E+02  0.55868402469E+02  0.35382615135E+02  0.94201884464E+02  0.00000000000E+00 0. -1.
       21    1    1    2  505  503 -0.64821401225E+02  0.33026289776E+03  0.14986189424E+03  0.36842093187E+03  0.00000000000E+00 0.  1.
<scales pt_clust_1="13000.00000" pt_clust_2="13000.00000" pt_clust_3="87.30444" pt_clust_4="347.71016"></scales>
<clustering>
<clus scale="   87.304">  1  5  2 -1</clus>
<clus scale="  347.710">  1  6  2 -1</clus>
<clus scale="  423.107">  2  3  1 -1</clus>
<clus scale="  423.107">  1  3  2 -1</clus>
</clustering>
</event>
<event>
 6   2  0.3464723E-02  0.4206274E+03  0.7816531E-02  0.1036862E+00
        1   -1    0    0  501    0  0.00000000000E+00  0.00000000000E+00  0.11123835483E+04  0.11123835483E+04  0.00000000000E+00 0.  1.
       21   -1    0    0  504  503  0.00000000000E+00  0.00000000000E+00 -0.77999736013E+03  0.77999736013E+03  0.00000000000E+00 0.  1.
  1000006    1    1    2  501    0 -0.72218565074E+02 -0.37931692873E+03  0.43985251418E+03  0.68195827423E+03  0.35000000000E+03 0.  0.
 -1000006    1    1    2    0  503 -0.85288746758E+02  0.19179369372E+03  0.16310894265E+02  0.40844220711E+03  0.35000000000E+03 0.  0.
       21    1    1    2  504  502 -0.32392026997E+02 -0.46497632654E+02 -0.39348389312E+03  0.39754351636E+03  0.00000000000E+00 0.  1.
        1    1    1    2  502    0  0.18989933883E+03  0.23402086767E+03  0.26970667287E+03  0.40443691076E+03  0.00000000000E+00 0.  1.
<scales pt_clust_1="13000.00000" pt_clust_2="13000.00000" pt_clust_3="56.66810" pt_clust_4="291.47479"></scales>
<clustering>
<clus scale="   56.668">  2  5  1 -1</clus>
<clus scale="  291.475">  1  6  2 -1</clus>
<clus scale="  420.627">  2  4  1 -1</clus>
<clus scale="  420.627">  2  3  1 -1</clus>
</clustering>
</event>
<event>
 6   2  0.3464723E-02  0.3980755E+03  0.7816531E-02  0.1044448E+00
       21   -1    0    0  504  502  0.00000000000E+00  0.00000000000E+00  0.17002757810E+03  0.17002757810E+03  0.00000000000E+00 0. -1.
       21   -1    0    0  505  503  0.00000000000E+00  0.00000000000E+00 -0.21348925700E+04  0.21348925700E+04  0.00000000000E+00 0. -1.
  1000006    1    1    2  501    0 -0.12414379338E+03  0.11320187861E+03 -0.85864173849E+03  0.94233326474E+03  0.35000000000E+03 0.  0.
 -1000006    1    1    2    0  502  0.67563151748E+02 -0.19172541031E+03 -0.20700708995E+03  0.45461560435E+03  0.35000000000E+03 0.  0.
       21    1    1    2  504  503  0.28200546311E+02  0.90437424252E+02 -0.70351113867E+03  0.70986063474E+03  0.00000000000E+00 0. -1.
       21    1    1    2  505  501  0.28380095317E+02 -0.11913892557E+02 -0.19570502477E+03  0.19811064425E+03  0.00000000000E+00 0. -1.
<scales pt_clust_1="13000.00000" pt_clust_2="13000.00000" pt_clust_3="94.32953" pt_clust_4="30.77939"></scales>
<clustering>
<clus scale="   30.779">  2  6  1 -1</clus>
<clus scale="   94.330">  2  5  1 -1</clus>
<clus scale="  398.075">  2  3  1 -1</clus>
<clus scale="  398.075">  1  3  2 -1</clus>
</clustering>
</event>
<event>
 6   2  0.3464723E-02  0.5060310E+03  0.7816531E-02  0.1012217E+00
        2   -1    0    0  501    0  0.00000000000E+00  0.00000000000E+00  0.62848888587E+03  0.62848888587E+03  0.00000000000E+00 0.  1.
       21   -1    0    0  504  503  0.00000000000E+00  0.00000000000E+00 -0.26723402912E+04  0.26723402912E+04  0.00000000000E+00 0.  1.
  1000006    1    1    2  501    0  0.14122718104E+03 -0.35042809689E+03 -0.95904658601E+03  0.10885840904E+04  0.35000000000E+03 0.  0.
 -1000006    1    1    2    0  503 -0.40919096154E+02  0.36945785966E+03 -0.13189156548E+04  0.14142885091E+04  0.35000000000E+03 0.  0.
       21    1    1    2  504  502  0.52383147935E+02 -0.22254772559E+02 -0.26756365342E+03  0.27354995470E+03  0.00000000000E+00 0.  1.
        2    1    1    2  502    0 -0.15269123283E+03  0.32250097908E+01  0.50167448890E+03  0.52440662285E+03  0.00000000000E+00 0.  1.
<scales pt_clust_1="13000.00000" pt_clust_2="13000.00000" pt_clust_3="56.91458" pt_clust_4="152.47526"></scales>
<clustering>
<clus scale="   56.915">  2  5  1 -1</clus>
<clus scale="  152.475">  1  6  2 -1</clus>
<clus scale="  506.031">  1  3  2 -1</clus>
<clus scale="  506.031">  2  3  1 -1</clus>
</clustering>
</event>
<event>
 6   2  0.3464723E-02  0.3657042E+03  0.7816531E-02  0.1056348E+00
       21   -1    0    0  504  502  0.00000000000E+00  0.00000000000E+00  0.16850145394E+03  0.16850145394E+03  0.00000000000E+00 0. -1.
       21   -1    0    0  502  503  0.00000000000E+00  0.00000000000E+00 -0.23838668224E+04  0.23838668224E+04  0.00000000000E+00 0. -1.
  1000006    1    1    2  501    0  0.41912012908E+02  0.94133006494E+02 -0.24633111362E+03  0.44022341746E+03  0.35000000000E+03 0.  0.
 -1000006    1    1    2    0  505  0.52247985835E+02 -0.12999090694E+03 -0.10880655177E+04  0.11515268381E+04  0.35000000000E+03 0.  0.
       21    1    1    2  504  501 -0.54821141820E+02  0.54371885524E+01  0.19753143492E+02  0.58524416167E+02  0.00000000000E+00 0. -1.
       21    1    1    2  505  503 -0.39338856923E+02  0.30420711890E+02 -0.90072188059E+03  0.90209360465E+03  0.00000000000E+00 0. -1.
<scales pt_clust_1="13000.00000" pt_clust_2="13000.00000" pt_clust_3="55.64236" pt_clust_4="49.72892"></scales>
<clustering>
<clus scale="   49.729">  2  6  1 -1</clus>
<clus scale="   55.642">  1  5  2 -1</clus>
<clus scale="  365.704">  2  4  1 -1</clus>
<clus scale="  365.704">  1  3  2 -1</clus>
</clustering>
</event>
<event>
 5   1  0.3464723E-02  0.3816090E+03  0.7816531E-02  0.1050341E+00
       21   -1    0    0  504  502  0.00000000000E+00  0.00000000000E+00  0.29870418156E+03  0.29870418156E+03  0.00000000000E+00 0. -1.
       21   -1    0    0  501  503  0.00000000000E+00  0.00000000000E+00 -0.65138484414E+03  0.65138484414E+03  0.00000000000E+00 0. -1.
  1000006    1    1    2  501    0 -0.35535417824E+02 -0.16364054510E+03 -0.28378509369E+03  0.48070258302E+03  0.35000000000E+03 0.  0.
 -1000006    1    1    2    0  502  0.25732961853E+02  0.12888439950E+03 -0.13216533455E+03  0.39653631538E+03  0.35000000000E+03 0.  0.
       21    1    1    2  504  503  0.98024559715E+01  0.34756145601E+02  0.63269765666E+02  0.72850127300E+02  0.00000000000E+00 0.  1.
<scales pt_clust_1="13000.00000" pt_clust_2="13000.00000" pt_clust_3="36.11202"></scales>
<clustering>
<clus scale="   36.112">  1  5  2 -1</clus>
<clus scale="  381.609">  1  4  2 -1</clus>
<clus scale="  381.609">  1  3  2 -1</clus>
</clustering>
</event>
<event>
 5   1  0.3464723E-02  0.5640162E+03  0.7816531E-02  0.9983008E-01
        2   -1    0    0  501    0  0.00000000000E+00  0.00000000000E+00  0.13119742247E+04  0.13119742247E+04  0.00000000000E+00 0. -1.
       21   -1    0    0  502  503  0.00000000000E+00  0.00000000000E+00 -0.28142312373E+03  0.28142312373E+03  0.00000000000E+00 0.  1.
  1000006    1    1    2  501    0 -0.44041120833E+03 -0.52965296757E+02  0.57187029111E+03  0.80392971393E+03  0.35000000000E+03 0.  0.
 -1000006    1    1    2    0  503  0.43343781946E+03  0.83588985694E+02  0.48888134988E+03  0.74589572738E+03  0.35000000000E+03 0.  0.
        2    1    1    2  502    0  0.69733888718E+01 -0.30623688936E+02 -0.30200539997E+02  0.43571907148E+02  0.00000000000E+00 0. -1.
<scales pt_clust_1="13000.00000" pt_clust_2="13000.00000" pt_clust_3="31.40762"></scales>
<clustering>
<clus scale="   31.408">  2  5  1 -1</clus>
<clus scale="  953.036">  3  4 -1 -1</clus>
<clus scale="  564.016">  2  3  1 -1</clus>
</clustering>
</event>
<event>
 5   1  0.3464723E-02  0.3616324E+03  0.7816531E-02  0.1057939E+00
       21   -1    0    0  501  503  0.00000000000E+00  0.00000000000E+00  0.19439908683E+03  0.19439908683E+03  0.00000000000E+00 0. -1.
        1   -1    0    0  503    0  0.00000000000E+00  0.00000000000E+00 -0.19143770594E+04  0.19143770594E+04  0.00000000000E+00 0. -1.
  1000006    1    1    2  501    0  0.14236385038E+02  0.78710067184E+02 -0.50628775161E+02  0.36257581581E+03  0.35000000000E+03 0.  0.
 -1000006    1    1    2    0  502 -0.90605110870E+02 -0.12836044844E+03 -0.10068060639E+04  0.10774247729E+04  0.35000000000E+03 0.  0.
        1    1    1    2  502    0  0.76368725832E+02  0.49650381252E+02 -0.66254313348E+03  0.66877555754E+03  0.00000000000E+00 0. -1.
<scales pt_clust_1="13000.00000" pt_clust_2="13000.00000" pt_clust_3="91.08975"></scales>
<clustering>
<clus scale="   91.090">  2  5  1 -1</clus>
<clus scale="  361.632">  2  4  1 -1</clus>
<clus scale="  361.632">  1  3  2 -1</clus>
</clustering>
</event>
<event>
 6   2  0.3464723E-02  0.4548635E+03  0.7816531E-02  0.1026282E+00
       21   -1    0    0  504  502  0.00000000000E+00  0.00000000000E+00  0.22385983165E+03  0.22385983165E+03  0.00000000000E+00 0. -1.
       21   -1    0    0  502  503  0.00000000000E+00  0.00000000000E+00 -0.17033011129E+04  0.17033011129E+04  0.00000000000E+00 0. -1.
  1000006    1    1    2  501    0 -0.33456224877E+03  0.28917503234E+02 -0.45438088199E+03  0.66462779524E+03  0.35000000000E+03 0.  0.
 -1000006    1    1    2    0  505  0.23300567339E+03  0.12196478836E+03 -0.74767087325E+03  0.86641721367E+03  0.35000000000E+03 0.  0.
       21    1    1    2  504  501  0.35241828730E+02 -0.96917256628E+02  0.28084676553E+01  0.10316408588E+03  0.00000000000E+00 0.  1.
       21    1    1    2  505  503  0.66314746655E+02 -0.53965034970E+02 -0.28019799366E+03  0.29295184975E+03  0.00000000000E+00 0. -1.
<scales pt_clust_1="13000.00000" pt_clust_2="13000.00000" pt_clust_3="105.73620" pt_clust_4="85.49778"></scales>
<clustering>
<clus scale="   85.498">  2  6  1 -1</clus>
<clus scale="  105.736">  1  5  2 -1</clus>
<clus scale="  454.863">  2  4  1 -1</clus>
<clus scale="  454.863">  1  3  2 -1</clus>
</clustering>
</event>
<event>
 6   2  0.3464723E-02  0.3729042E+03  0.7816531E-02  0.1053588E+00
       21   -1    0    0  504  502  0.00000000000E+00  0.00000000000E+00  0.11515886381E+04  0.11515886381E+04  0.00000000000E+00 0. -1.
       21   -1    0    0  501  503  0.00000000000E+00  0.00000000000E+00 -0.73041994506E+03  0.73041994506E+03  0.00000000000E+00 0.  1.
  1000006    1    1    2  501    0 -0.16174341738E+03  0.99805683795E-01 -0.27546712753E+03  0.47385976974E+03  0.35000000000E+03 0.  0.
 -1000006    1    1    2    0  505  0.72351839516E+02 -0.10636167281E+03 -0.24680504651E+03  0.44716923542E+03  0.35000000000E+03 0.  0.
       21    1    1    2  504  503  0.78981350514E+02  0.30324859916E+02  0.26389845043E+03  0.27712820678E+03  0.00000000000E+00 0. -1.
       21    1    1    2  505  502  0.10410227348E+02  0.75937007214E+02  0.67954241669E+03  0.68385137127E+03  0.00000000000E+00 0. -1.
<scales pt_clust_1="13000.00000" pt_clust_2="13000.00000" pt_clust_3="112.70654" pt_clust_4="76.64726"></scales>
<clustering>
<clus scale="   76.647">  1  6  2 -1</clus>
<clus scale="  112.707">  1  5  2 -1</clus>
<clus scale="  372.904">  2  3  1 -1</clus>
<clus scale="  372.904">  1  3  2 -1</clus>
</clustering>
</event>
<event>
 6   2  0.3464723E-02  0.3814389E+03  0.7816531E-02  0.1050403E+00
       21   -1    0    0  502  503  0.00000000000E+00  0.00000000000E+00  0.11920115641E+04  0.11920115641E+04  0.00000000000E+00 0.  1.
       21   -1    0    0  503  504  0.00000000000E+00  0.00000000000E+00 -0.19605777496E+03  0.19605777496E+03  0.00000000000E+00 0.  1.
  1000006    1    1    2  501    0 -0.49142043836E+02  0.15788915437E+03  0.35322177339E+03  0.52403200927E+03  0.35000000000E+03 0.  0.
 -1000006    1    1    2    0  504 -0.59859333778E+02 -0.14576116118E+03  0.27179644028E+03  0.47032197577E+03  0.35000000000E+03 0.  0.
        1    1    1    2  502    0  0.31340900907E+02 -0.36276291526E+02  0.17791833875E+03  0.18426382353E+03  0.00000000000E+00 0. -1.
       -1    1    1    2    0  501  0.77660476707E+02  0.24148298328E+02  0.19301723672E+03  0.20945153049E+03  0.00000000000E+00 0.  1.
<scales pt_clust_1="13000.00000" pt_clust_2="13000.00000" pt_clust_3="47.93977" pt_clust_4="85.58975"></scales>
<clustering>
<clus scale="   47.940">  1  5  2 -1</clus>
<clus scale="   85.590">  1  6  2 -1</clus>
<clus scale="  381.439">  1  3  2 -1</clus>
<clus scale="  381.439">  1  3  2 -1</clus>
</clustering>
</event>
<event>
 6   2  0.3464723E-02  0.3855754E+03  0.7816531E-02  0.1048892E+00
       21   -1    0    0  504  502  0.00000000000E+00  0.00000000000E+00  0.86428472798E+03  0.86428472798E+03  0.00000000000E+00 0. -1.
       21   -1    0    0  505  503  0.00000000000E+00  0.00000000000E+00 -0.15228993883E+04  0.15228993883E+04  0.00000000000E+00 0.  1.
  1000006    1    1    2  501    0  0.14281544770E+03  0.22384983789E+03 -0.36867324842E+03  0.57351980448E+03  0.35000000000E+03 0.  0.
 -1000006    1    1    2    0  503 -0.85351745900E+02 -0.96022174049E+02 -0.10035730884E+04  0.10705905483E+04  0.35000000000E+03 0.  0.
       21    1    1    2  504  501 -0.19152934545E+02 -0.27265959454E+02  0.15592732478E+02  0.36788595417E+02  0.00000000000E+00 0.  1.
       21    1    1    2  505  502 -0.38310767257E+02 -0.10056170439E+03  0.69803894400E+03  0.70628516806E+03  0.00000000000E+00 0. -1.
<scales pt_clust_1="13000.00000" pt_clust_2="13000.00000" pt_clust_3="33.32068" pt_clust_4="134.84655"></scales>
<clustering>
<clus scale="   33.321">  1  5  2 -1</clus>
<clus scale="  134.847">  1  6  2 -1</clus>
<clus scale="  385.575">  1  3  2 -1</clus>
<clus scale="  385.575">  1  3  2 -1</clus>
</clustering>
</event>
<event>
 4   0  0.3464723E-02  0.5596744E+03  0.7816531E-02  0.9992792E-01
       21   -1    0    0  503  502  0.00000000000E+00  0.00000000000E+00  0.45005412923E+03  0.45005412923E+03  0.00000000000E+00 0.  1.
       21   -1    0    0  501  503  0.00000000000E+00  0.00000000000E+00 -0.10945435906E+04  0.10945435906E+04  0.00000000000E+00 0. -1.
  1000006    1    1    2  501    0  0.16923095052E+03  0.40261185444E+03 -0.78827004276E+03  0.96674975059E+03  0.35000000000E+03 0.  0.
 -1000006    1    1    2    0  502 -0.16923095052E+03 -0.40261185444E+03  0.14378058141E+03  0.57784796923E+03  0.35000000000E+03 0.  0.
<scales pt_clust_1="13000.00000" pt_clust_2="13000.00000"></scales>
<clustering>
<clus scale="  559.674">  2  3  1 -1</clus>
<clus scale="  559.674">  1  3  2 -1</clus>
</clustering>
</event>
<event>
 5   1  0.3464723E-02  0.3850852E+03  0.7816531E-02  0.1049070E+00
       21   -1    0    0  504  502  0.00000000000E+00  0.00000000000E+00  0.78290224929E+03  0.78290224929E+03  0.00000000000E+00 0. -1.
       21   -1    0    0  501  503  0.00000000000E+00  0.00000000000E+00 -0.97006951189E+03  0.97006951189E+03  0.00000000000E+00 0.  1.
  1000006    1    1    2  501    0  0.11896615161E+02 -0.12356411867E+03 -0.36790310127E+02  0.37317977945E+03  0.35000000000E+03 0.  0.
 -1000006    1    1    2    0  502 -0.21048495144E+03 -0.88310862782E+02  0.50944719329E+03  0.65889237818E+03  0.35000000000E+03 0.  0.
       21    1    1    2  504  503  0.19858833628E+03  0.21187498145E+03 -0.65982414576E+03  0.72089960355E+03  0.00000000000E+00 0.  1.
<scales pt_clust_1="13000.00000" pt_clust_2="13000.00000" pt_clust_3="290.39341"></scales>
<clustering>
<clus scale="  290.393">  2  5  1 -1</clus>
<clus scale="  385.085">  1  4  2 -1</clus>
<clus scale="  385.085">  1  3  2 -1</clus>
</clustering>
</event>
<event>
 5   1  0.3464723E-02  0.3726505E+03  0.7816531E-02  0.1053684E+00
       21   -1    0    0  503  502  0.00000000000E+00  0.00000000000E+00  0.19379733610E+04  0.19379733610E+04  0.00000000000E+00 0.  1.
       21   -1    0    0  504  503  0.00000000000E+00  0.00000000000E+00 -0.31550178440E+03  0.31550178440E+03  0.00000000000E+00 0.  1.
  1000006    1    1    2  501    0  0.79333702095E+02 -0.20889475356E+02  0.64474693177E+03  0.73819293717E+03  0.35000000000E+03 0.  0.
 -1000006    1    1    2    0  502 -0.89734461891E+02 -0.17931834546E+03  0.11699523584E+04  0.12375362070E+04  0.35000000000E+03 0.  0.
       21    1    1    2  504  501  0.10400759796E+02  0.20020782082E+03 -0.19222771359E+03  0.27774600122E+03  0.00000000000E+00 0.  1.
<scales pt_clust_1="13000.00000" pt_clust_2="13000.00000" pt_clust_3="200.47780"></scales>
<clustering>
<clus scale="  200.478">  2  5  1 -1</clus>
<clus scale="  372.651">  2  3  1 -1</clus>
<clus scale="  372.651">  1  3  2 -1</clus>
</clustering>
</event>
<event>
 4   0  0.3464723E-02  0.3531868E+03  0.7816531E-02  0.1061315E+00
       21   -1    0    0  501  502  0.00000000000E+00  0.00000000000E+00  0.68187863225E+02  0.68187863225E+02  0.00000000000E+00 0.  1.
       21   -1    0    0  502  503  0.00000000000E+00  0.00000000000E+00 -0.23459050560E+04  0.23459050560E+04  0.00000000000E+00 0.  1.
  1000006    1    1    2  501    0 -0.42720779454E+02 -0.20392400410E+02 -0.57246523301E+03  0.67264950605E+03  0.35000000000E+03 0.  0.
 -1000006    1    1    2    0  503  0.42720779454E+02  0.20392400410E+02 -0.17052519598E+04  0.17414434132E+04  0.35000000000E+03 0.  0.
<scales pt_clust_1="13000.00000" pt_clust_2="13000.00000"></scales>
<clustering>
<clus scale="  353.187">  1  3  2 -1</clus>
<clus scale="  353.187">  1  3  2 -1</clus>
</clustering>
</event>
<event>
 5   1  0.3464723E-02  0.5173876E+03  0.7816531E-02  0.1009338E+00
       21   -1    0    0  502  503  0.00000000000E+00  0.00000000000E+00  0.19612558888E+04  0.19612558888E+04  0.00000000000E+00 0.  1.
       -3   -1    0    0    0  501  0.00000000000E+00  0.00000000000E+00 -0.56177785872E+03  0.56177785872E+03  0.00000000000E+00 0.  1.
  1000006    1    1    2  502    0  0.12455375063E+03 -0.37119919468E+03  0.13802251249E+04  0.14767612788E+04  0.35000000000E+03 0.  0.
 -1000006    1    1    2    0  501 -0.10453641401E+03  0.33995185898E+03  0.41486213095E+03  0.64892658750E+03  0.35000000000E+03 0.  0.
       -3    1    1    2    0  503 -0.20017336627E+02  0.31247335702E+02 -0.39560922584E+03  0.39734588123E+03  0.00000000000E+00 0.  1.
<scales pt_clust_1="13000.00000" pt_clust_2="13000.00000" pt_clust_3="37.10916"></scales>
<clustering>
<clus scale="   37.109">  2  5  1 -1</clus>
<clus scale="  517.388">  2  4  1 -1</clus>
<clus scale="  517.388">  1  3  2 -1</clus>
</clustering>
</event>
<event>
 6   2  0.3464723E-02  0.4570132E+03  0.7816531E-02  0.1025651E+00
        1   -1    0    0  501    0  0.00000000000E+00  0.00000000000E+00  0.28876009151E+03  0.28876009151E+03  0.00000000000E+00 0.  1.
       21   -1    0    0  504  503  0.00000000000E+00  0.00000000000E+00 -0.13822128062E+04  0.13822128062E+04  0.00000000000E+00 0. -1.
  1000006    1    1    2  501    0 -0.35461902446E+03  0.98825761699E+02 -0.58153030795E+03  0.77213903071E+03  0.35000000000E+03 0.  0.
 -1000006    1    1    2    0  503  0.19513038410E+03 -0.13310458626E+03 -0.52436739264E+03  0.67324130900E+03  0.35000000000E+03 0.  0.
       21    1    1    2  504  502  0.21710814039E+02 -0.39004516045E+02 -0.41028231134E+02  0.60630252087E+02  0.00000000000E+00 0.  1.
        1    1    1    2  502    0  0.13777782632E+03  0.73283340602E+02  0.53473217032E+02  0.16496230592E+03  0.00000000000E+00 0.  1.
<scales pt_clust_1="13000.00000" pt_clust_2="13000.00000" pt_clust_3="44.63980" pt_clust_4="156.10189"></scales>
<clustering>
<clus scale="   44.640">  2  5  1 -1</clus>
<clus scale="  156.102">  1  6  2 -1</clus>
<clus scale="  457.013">  1  3  2 -1</clus>
<clus scale="  457.013">  2  3  1 -1</clus>
</clustering>
</event>
<event>
 6   2  0.3464723E-02  0.4314667E+03  0.7816531E-02  0.1033398E+00
       21   -1    0    0  504  502  0.00000000000E+00  0.00000000000E+00  0.20163250020E+04  0.20163250020E+04  0.00000000000E+00 0.  1.
       21   -1    0    0  505  503  0.00000000000E+00  0.00000000000E+00 -0.77035645507E+03  0.77035645507E+03  0.00000000000E+00 0. -1.
  1000006    1    1    2  501    0  0.21358466376E+03  0.33347907158E+03 -0.10732093651E+03  0.53929999369E+03  0.35000000000E+03 0.  0.
 -1000006    1    1    2    0  503  0.98317900905E+01 -0.19906271026E+03 -0.26722893216E+03  0.48335693736E+03  0.35000000000E+03 0.  0.
       21    1    1    2  504  501 -0.10436612593E+03 -0.36212083307E+02  0.16051350054E+04  0.16089319404E+04  0.00000000000E+00 0.  1.
       21    1    1    2  505  502 -0.11905032792E+03 -0.98204278017E+02  0.15383410150E+02  0.15509258560E+03  0.00000000000E+00 0. -1.
<scales pt_clust_1="13000.00000" pt_clust_2="13000.00000" pt_clust_3="110.46992" pt_clust_4="176.07575"></scales>
<clustering>
<clus scale="  110.470">  1  5  2 -1</clus>
<clus scale="  176.076">  1  6  2 -1</clus>
<clus scale="  431.467">  1  3  2 -1</clus>
<clus scale="  431.467">  1  3  2 -1</clus>
</clustering>
</event>
<event>
 4   0  0.3464723E-02  0.1098682E+04  0.7816531E-02  0.9206477E-01
        1   -1    0    0  502    0  0.00000000000E+00  0.00000000000E+00  0.15412828842E+04  0.15412828842E+04  0.00000000000E+00 0.  1.
       -1   -1    0    0    0  501  0.00000000000E+00  0.00000000000E+00 -0.89909043864E+03  0.89909043864E+03  0.00000000000E+00 0. -1.
  1000006    1    1    2  502    0 -0.67465898353E+03  0.79337130031E+03  0.75920791464E+03  0.13354772263E+04  0.35000000000E+03 0.  0.
 -1000006    1    1    2    0  501  0.67465898353E+03 -0.79337130031E+03 -0.11701546908E+03  0.11048960966E+04  0.35000000000E+03 0.  0.
<scales pt_clust_1="13000.00000" pt_clust_2="13000.00000"></scales>
<clustering>
<clus scale=" 2274.975">  3  4 -1 -1</clus>
<clus scale=" 1098.682">  1  3  2 -1</clus>
</clustering>
</event>
<event>
 6   2  0.3464723E-02  0.3738383E+03  0.7816531E-02  0.1053235E+00
       21   -1    0    0  504  502  0.00000000000E+00  0.00000000000E+00  0.10315396048E+04  0.10315396048E+04  0.00000000000E+00 0.  1.
       21   -1    0    0  501  503  0.00000000000E+00  0.00000000000E+00 -0.27343315377E+03  0.27343315377E+03  0.00000000000E+00 0.  1.
  1000006    1    1    2  501    0  0.21403304513E+03 -0.16459121112E+02  0.16249664856E+03  0.44157242653E+03  0.35000000000E+03 0.  0.
 -1000006    1    1    2    0  502 -0.85666123771E+02 -0.76892805019E+02  0.58852736089E+03  0.69434547795E+03  0.35000000000E+03 0.  0.
       21    1    1    2  504  505 -0.59759063981E+02  0.39398015103E+02  0.31825469077E+02  0.78333963284E+02  0.00000000000E+00 0.  1.
       21    1    1    2  505  503 -0.68607857380E+02  0.53953911028E+02 -0.24743027543E+02  0.90720890767E+02  0.00000000000E+00 0.  1.
<scales pt_clust_1="13000.00000" pt_clust_2="13000.00000" pt_clust_3="52.31041" pt_clust_4="168.90643"></scales>
<clustering>
<clus scale="   52.310">  5  6 -1 -1</clus>
<clus scale="  168.906">  2  5  1 -1</clus>
<clus scale="  373.838">  2  3  1 -1</clus>
<clus scale="  373.838">  1  3  2 -1</clus>
</clustering>
</event>
<event>
 6   2  0.3464723E-02  0.3604037E+03  0.7816531E-02  0.1058424E+00
       21   -1    0    0  501  502  0.00000000000E+00  0.00000000000E+00  0.34551148429E+04  0.34551148429E+04  0.00000000000E+00 0.  1.
       21   -1    0    0  504  503  0.00000000000E+00  0.00000000000E+00 -0.20267173499E+03  0.20267173499E+03  0.00000000000E+00 0.  1.
  1000006    1    1    2  501    0  0.95533450812E+02 -0.19988761736E+03  0.13503568373E+04  0.14124607208E+04  0.35000000000E+03 0.  0.
 -1000006    1    1    2    0  503 -0.52390949385E+02  0.14184390559E+01  0.42465734976E+03  0.55279353131E+03  0.35000000000E+03 0.  0.
       21    1    1    2  504  505  0.42020081915E+02  0.44453868866E+02 -0.93523842628E+02  0.11175214934E+03  0.00000000000E+00 0.  1.
       21    1    1    2  505  502 -0.85162583342E+02  0.15401530944E+03  0.15709527635E+04  0.15807801764E+04  0.00000000000E+00 0.  1.
<scales pt_clust_1="13000.00000" pt_clust_2="13000.00000" pt_clust_3="61.17053" pt_clust_4="176.92785"></scales>
<clustering>
<clus scale="   61.171">  2  5  1 -1</clus>
<clus scale="  176.928">  1  6  2 -1</clus>
<clus scale="  360.404">  1  3  2 -1</clus>
<clus scale="  360.404">  1  3  2 -1</clus>
</clustering>
</event>
<event>
 5   1  0.3464723E-02  0.4622934E+03  0.7816531E-02  0.1024118E+00
       21   -1    0    0  504  502  0.00000000000E+00  0.00000000000E+00  0.10031759514E+04  0.10031759514E+04  0.00000000000E+00 0. -1.
       21   -1    0    0  501  503  0.00000000000E+00  0.00000000000E+00 -0.48482131876E+03  0.48482131876E+03  0.00000000000E+00 0. -1.
  1000006    1    1    2  501    0  0.14677409579E+03  0.48886298961E+02 -0.16164810656E+03  0.41540656684E+03  0.35000000000E+03 0.  0.
 -1000006    1    1    2    0  502 -0.16606675386E+03 -0.31911737791E+03  0.61531315864E+03  0.79405563458E+03  0.35000000000E+03 0.  0.
       21    1    1    2  504  503  0.19292658069E+02  0.27023107894E+03  0.64689580551E+02  0.27853506873E+03  0.00000000000E+00 0. -1.
<scales pt_clust_1="13000.00000" pt_clust_2="13000.00000" pt_clust_3="270.91889"></scales>
<clustering>
<clus scale="  270.919">  2  5  1 -1</clus>
<clus scale="  462.293">  1  4  2 -1</clus>
<clus scale="  462.293">  1  3  2 -1</clus>
</clustering>
</event>
<event>
 5   1  0.3464723E-02  0.4699076E+03  0.7816531E-02  0.1021946E+00
       21   -1    0    0  501  502  0.00000000000E+00  0.00000000000E+00  0.74086651934E+03  0.74086651934E+03  0.00000000000E+00 0. -1.
       21   -1    0    0  502  503  0.00000000000E+00  0.00000000000E+00 -0.24173681141E+04  0.24173681141E+04  0.00000000000E+00 0. -1.
  1000006    1    1    2  501    0 -0.12249685893E+03  0.26966933571E+03  0.35640169268E+03  0.58073160549E+03  0.35000000000E+03 0.  0.
 -1000006    1    1    2    0  504  0.16767179977E+03 -0.30600068241E+03  0.47315517673E+02  0.49647659390E+03  0.35000000000E+03 0.  0.
       21    1    1    2  504  503 -0.45174940841E+02  0.36331346694E+02 -0.20802188051E+04  0.20810264340E+04  0.00000000000E+00 0. -1.
<scales pt_clust_1="13000.00000" pt_clust_2="13000.00000" pt_clust_3="57.97191"></scales>
<clustering>
<clus scale="   57.972">  2  5  1 -1</clus>
<clus scale="  469.908">  2  4  1 -1</clus>
<clus scale="  469.908">  1  3  2 -1</clus>
</clustering>
</event>
<event>
 6   2  0.3464723E-02  0.4510139E+03  0.7816531E-02  0.1027420E+00
       21   -1    0    0  504  503  0.00000000000E+00  0.00000000000E+00  0.63997140424E+03  0.63997140424E+03  0.00000000000E+00 0.  1.
       -1   -1    0    0    0  501  0.00000000000E+00  0.00000000000E+00 -0.50832367885E+03  0.50832367885E+03  0.00000000000E+00 0.  1.
  1000006    1    1    2  502    0 -0.17425186144E+03 -0.30407254064E+03  0.15068352795E+03  0.51771550757E+03  0.35000000000E+03 0.  0.
 -1000006    1    1    2    0  503  0.12723803709E+03  0.18474977557E+03  0.11056142264E+03  0.43016953150E+03  0.35000000000E+03 0.  0.
       21    1    1    2  504  501  0.13951956153E+02  0.35410532416E+02  0.50022450007E+01  0.38387307036E+02  0.00000000000E+00 0.  1.
       -1    1    1    2    0  502  0.33061868202E+02  0.83912232651E+02 -0.13459947021E+03  0.16202273698E+03  0.00000000000E+00 0.  1.
<scales pt_clust_1="13000.00000" pt_clust_2="13000.00000" pt_clust_3="38.05999" pt_clust_4="91.03469"></scales>
<clustering>
<clus scale="   38.060">  1  5  2 -1</clus>
<clus scale="   91.035">  2  6  1 -1</clus>
<clus scale="  451.014">  1  4  2 -1</clus>
<clus scale="  451.014">  1  3  2 -1</clus>
</clustering>
</event>
<event>
 4   0  0.3464723E-02  0.3795996E+03  0.7816531E-02  0.1051082E+00
       21   -1    0    0  501  502  0.00000000000E+00  0.00000000000E+00  0.55192750340E+02  0.55192750340E+02  0.00000000000E+00 0.  1.
       21   -1    0    0  502  503  0.00000000000E+00  0.00000000000E+00 -0.26949311805E+04  0.26949311805E+04  0.00000000000E+00 0.  1.
  1000006    1    1    2  501    0 -0.14685366521E+03 -0.54637536965E+01 -0.10768774850E+04  0.11418235281E+04  0.35000000000E+03 0.  0.
 -1000006    1    1    2    0  503  0.14685366521E+03  0.54637536965E+01 -0.15628609452E+04  0.16083004028E+04  0.35000000000E+03 0.  0.
<scales pt_clust_1="13000.00000" pt_clust_2="13000.00000"></scales>
<clustering>
<clus scale="  379.600">  1  3  2 -1</clus>
<clus scale="  379.600">  1  3  2 -1</clus>
</clustering>
</event>
<event>
 5   1  0.3464723E-02  0.3537009E+03  0.7816531E-02  0.1061106E+00
       21   -1    0    0  504  502  0.00000000000E+00  0.00000000000E+00  0.69447171503E+03  0.69447171503E+03  0.00000000000E+00 0. -1.
       21   -1    0    0  502  503  0.00000000000E+00  0.00000000000E+00 -0.28843889017E+03  0.28843889017E+03  0.00000000000E+00 0. -1.
  1000006    1    1    2  501    0  0.39441667450E+02 -0.58889353188E+02  0.11909399882E+03  0.37643987781E+03  0.35000000000E+03 0.  0.
 -1000006    1    1    2    0  503 -0.17048397307E+02  0.31120166069E+02  0.36701491896E+02  0.35370342392E+03  0.35000000000E+03 0.  0.
       21    1    1    2  504  501 -0.22393270143E+02  0.27769187119E+02  0.25023733415E+03  0.25276730347E+03  0.00000000000E+00 0.  1.
<scales pt_clust_1="13000.00000" pt_clust_2="13000.00000" pt_clust_3="35.67333"></scales>
<clustering>
<clus scale="   35.673">  1  5  2 -1</clus>
<clus scale="  353.701">  1  3  2 -1</clus>
<clus scale="  353.701">  1  3  2 -1</clus>
</clustering>
</event>
<event>
 6   2  0.3464723E-02  0.5186222E+03  0.7816531E-02  0.1009029E+00
       21   -1    0    0  502  503  0.00000000000E+00  0.00000000000E+00  0.12315178280E+04  0.12315178280E+04  0.00000000000E+00 0. -1.
        2   -1    0    0  501    0  0.00000000000E+00  0.00000000000E+00 -0.62019774023E+03  0.62019774023E+03  0.00000000000E+00 0.  1.
  1000006    1    1    2  501    0 -0.33898184839E+03 -0.20483777884E+03 -0.84043983390E+02  0.53519211534E+03  0.35000000000E+03 0.  0.
 -1000006    1    1    2    0  504  0.38332055244E+03  0.42781332735E+02  0.53794627465E+03  0.74876637395E+03  0.35000000000E+03 0.  0.
       21    1    1    2  504  503 -0.83026091392E+01  0.43707357357E+02  0.34236712922E+03  0.34524559023E+03  0.00000000000E+00 0. -1.
        2    1    1    2  502    0 -0.36036094910E+02  0.11834908875E+03 -0.18494933270E+03  0.22251148872E+03  0.00000000000E+00 0.  1.
<scales pt_clust_1="13000.00000" pt_clust_2="13000.00000" pt_clust_3="44.48895" pt_clust_4="124.64962"></scales>
<clustering>
<clus scale="   44.489">  1  5  2 -1</clus>
<clus scale="  124.650">  2  6  1 -1</clus>
<clus scale="  518.622">  1  4  2 -1</clus>
<clus scale="  518.622">  1  3  2 -1</clus>
</clustering>
</event>
<event>
 4   0  0.3464723E-02  0.3554488E+03  0.7816531E-02  0.1060401E+00
       21   -1    0    0  501  502  0.00000000000E+00  0.00000000000E+00  0.98243951219E+02  0.98243951219E+02  0.00000000000E+00 0.  1.
       21   -1    0    0  502  503  0.00000000000E+00  0.00000000000E+00 -0.16020515245E+04  0.16020515245E+04  0.00000000000E+00 0.  1.
  1000006    1    1    2  501    0  0.56898736840E+02 -0.24624519224E+02 -0.37431391329E+03  0.51619254052E+03  0.35000000000E+03 0.  0.
 -1000006    1    1    2    0  503 -0.56898736840E+02  0.24624519224E+02 -0.11294936600E+04  0.11841029352E+04  0.35000000000E+03 0.  0.
<scales pt_clust_1="13000.00000" pt_clust_2="13000.00000"></scales>
<clustering>
<clus scale="  355.449">  1  3  2 -1</clus>
<clus scale="  355.449">  1  3  2 -1</clus>
</clustering>
</event>
<event>
 5   1  0.3464723E-02  0.3502720E+03  0.7816531E-02  0.1062503E+00
       21   -1    0    0  504  502  0.00000000000E+00  0.00000000000E+00  0.49884828795E+03  0.49884828795E+03  0.00000000000E+00 0.  1.
       21   -1    0    0  501  503  0.00000000000E+00  0.00000000000E+00 -0.99391653816E+03  0.99391653816E+03  0.00000000000E+00 0.  1.
  1000006    1    1    2  501    0 -0.24343634507E+01 -0.33547950709E+02 -0.65518270286E+03  0.74356961022E+03  0.35000000000E+03 0.  0.
 -1000006    1    1    2    0  502  0.12824806139E+02 -0.25098482932E+03  0.18694496844E+02  0.43128568770E+03  0.35000000000E+03 0.  0.
       21    1    1    2  504  503 -0.10390442688E+02  0.28453278003E+03  0.14141995581E+03  0.31790952819E+03  0.00000000000E+00 0.  1.
<scales pt_clust_1="13000.00000" pt_clust_2="13000.00000" pt_clust_3="284.72243"></scales>
<clustering>
<clus scale="  284.722">  1  5  2 -1</clus>
<clus scale="  350.272">  1  4  2 -1</clus>
<clus scale="  350.272">  1  3  2 -1</clus>
</clustering>
</event>
<event>
 6   2  0.3464723E-02  0.3644610E+03  0.7816531E-02  0.1056831E+00
        2   -1    0    0  504    0  0.00000000000E+00  0.00000000000E+00  0.17861725576E+04  0.17861725576E+04  0.00000000000E+00 0.  1.
       21   -1    0    0  501  503  0.00000000000E+00  0.00000000000E+00 -0.37674982512E+03  0.37674982512E+03  0.00000000000E+00 0.  1.
  1000006    1    1    2  501    0  0.10484291577E+03 -0.11322469212E+03  0.14333569858E+03  0.40848132195E+03  0.35000000000E+03 0.  0.
 -1000006    1    1    2    0  502 -0.35165313625E+02  0.34851861098E+02  0.16289424614E+03  0.38921175076E+03  0.35000000000E+03 0.  0.
       21    1    1    2  504  503 -0.95386531470E+02 -0.56987922452E+02 -0.10281056486E+03  0.15138106202E+03  0.00000000000E+00 0.  1.
        2    1    1    2  502    0  0.25708929321E+02  0.13536075347E+03  0.12060033526E+04  0.12138482480E+04  0.00000000000E+00 0.  1.
<scales pt_clust_1="13000.00000" pt_clust_2="13000.00000" pt_clust_3="111.11352" pt_clust_4="136.62751"></scales>
<clustering>
<clus scale="  111.114">  2  5  1 -1</clus>
<clus scale="  136.628">  1  6  2 -1</clus>
<clus scale="  364.461">  1  4  2 -1</clus>
<clus scale="  364.461">  2  3  1 -1</clus>
</clustering>
</event>
<event>
 6   2  0.3464723E-02  0.4101823E+03  0.7816531E-02  0.1040310E+00
       21   -1    0    0  504  503  0.00000000000E+00  0.00000000000E+00  0.14619127272E+04  0.14619127272E+04  0.00000000000E+00 0. -1.
       -2   -1    0    0    0  501  0.00000000000E+00  0.00000000000E+00 -0.74531595318E+03  0.74531595318E+03  0.00000000000E+00 0. -1.
  1000006    1    1    2  502    0  0.13183059123E+03 -0.18147677405E+03  0.54008509476E+03  0.68154606146E+03  0.35000000000E+03 0.  0.
 -1000006    1    1    2    0  501 -0.41206863545E+01  0.23016752125E+03 -0.16436151116E+03  0.45000974906E+03  0.35000000000E+03 0.  0.
       21    1    1    2  504  502 -0.29748531256E+02 -0.58940748431E+01  0.70016157704E+03  0.70081805712E+03  0.00000000000E+00 0.  1.
       -2    1    1    2    0  503 -0.97961373620E+02 -0.42796672357E+02 -0.35928838661E+03  0.37485481275E+03  0.00000000000E+00 0. -1.
<scales pt_clust_1="13000.00000" pt_clust_2="13000.00000" pt_clust_3="30.32681" pt_clust_4="107.20455"></scales>
<clustering>
<clus scale="   30.327">  1  5  2 -1</clus>
<clus scale="  107.205">  2  6  1 -1</clus>
<clus scale="  410.182">  1  3  2 -1</clus>
<clus scale="  410.182">  1  3  2 -1</clus>
</clustering>
</event>
<event>
 5   1  0.3464723E-02  0.4269451E+03  0.7816531E-02  0.1034829E+00
       -2   -1    0    0    0  501  0.00000000000E+00  0.00000000000E+00  0.39698766970E+03  0.39698766970E+03  0.00000000000E+00 0. -1.
        2   -1    0    0  502    0  0.00000000000E+00  0.00000000000E+00 -0.11929565073E+04  0.11929565073E+04  0.00000000000E+00 0.  1.
  1000006    1    1    2  502    0  0.12668185293E+03  0.19936585665E+03  0.20327031783E+03  0.46862976727E+03  0.35000000000E+03 0.  0.
 -1000006    1    1    2    0  503 -0.10171392968E+03 -0.22382634551E+03 -0.99861148437E+03  0.10863557673E+04  0.35000000000E+03 0.  0.
       21    1    1    2  503  501 -0.24967923250E+02  0.24460488859E+02 -0.62767100786E+00  0.34958642387E+02  0.00000000000E+00 0. -1.
<scales pt_clust_1="13000.00000" pt_clust_2="13000.00000" pt_clust_3="34.95301"></scales>
<clustering>
<clus scale="   34.953">  1  5  2 -1</clus>
<clus scale=" 1190.248">  3  4 -1 -1</clus>
<clus scale="  426.945">  2  3  1 -1</clus>
</clustering>
</event>
<event>
 6   2  0.3464723E-02  0.3703217E+03  0.7816531E-02  0.1054570E+00
       21   -1    0    0  504  502  0.00000000000E+00  0.00000000000E+00  0.39841424915E+03  0.39841424915E+03  0.00000000000E+00 0. -1.
       21   -1    0    0  505  503  0.00000000000E+00  0.00000000000E+00 -0.67511352102E+03  0.67511352102E+03  0.00000000000E+00 0. -1.
  1000006    1    1    2  501    0 -0.76195608774E+02 -0.13521880514E+03 -0.21208920216E+00  0.38287065837E+03  0.35000000000E+03 0.  0.
 -1000006    1    1    2    0  503  0.92631785803E+02  0.43280842385E+02 -0.33018156551E+03  0.49190826915E+03  0.35000000000E+03 0.  0.
       21    1    1    2  504  501  0.51101339894E+01  0.40965974164E+02  0.11139594380E+03  0.11879975086E+03  0.00000000000E+00 0. -1.
       21    1    1    2  505  502 -0.21546311019E+02  0.50971988593E+02 -0.57701560967E+02  0.79949091788E+02  0.00000000000E+00 0.  1.
<scales pt_clust_1="13000.00000" pt_clust_2="13000.00000" pt_clust_3="41.28347" pt_clust_4="56.74803"></scales>
<clustering>
<clus scale="   41.283">  1  5  2 -1</clus>
<clus scale="   56.748">  2  6  1 -1</clus>
<clus scale="  370.322">  2  4  1 -1</clus>
<clus scale="  370.322">  1  3  2 -1</clus>
</clustering>
</event>
<event>
 6   2  0.3464723E-02  0.3688793E+03  0.7816531E-02  0.1055122E+00
       21   -1    0    0  505  502  0.00000000000E+00  0.00000000000E+00  0.28184759281E+03  0.28184759281E+03  0.00000000000E+00 0. -1.
       21   -1    0    0  501  503  0.00000000000E+00  0.00000000000E+00 -0.86767121538E+03  0.86767121538E+03  0.00000000000E+00 0. -1.
  1000006    1    1    2  501    0 -0.10003027160E+03  0.41184874389E+02 -0.41438727767E+03  0.55309950733E+03  0.35000000000E+03 0.  0.
 -1000006    1    1    2    0  502  0.14453879812E+03  0.10968471720E+03 -0.18260466772E+03  0.43447285994E+03  0.35000000000E+03 0.  0.
       21    1    1    2  504  503 -0.20269540094E+02 -0.90529883547E+02 -0.10596378249E+02  0.93374500280E+02  0.00000000000E+00 0. -1.
       21    1    1    2  505  504 -0.24238986420E+02 -0.60339708042E+02  0.21764701080E+02  0.68571940635E+02  0.00000000000E+00 0. -1.
<scales pt_clust_1="13000.00000" pt_clust_2="13000.00000" pt_clust_3="161.56088" pt_clust_4="30.86677"></scales>
<clustering>
<clus scale="   30.867">  5  6 -1 -1</clus>
<clus scale="  161.561">  1  5  2 -1</clus>
<clus scale="  368.879">  2  3  1 -1</clus>
<clus scale="  368.879">  1  3  2 -1</clus>
</clustering>
</event>
<event>
 6   2  0.3464723E-02  0.4512702E+03  0.7816531E-02  0.1027344E+00
       21   -1    0    0  504  502  0.00000000000E+00  0.00000000000E+00  0.17848626039E+04  0.17848626039E+04  0.00000000000E+00 0. -1.
       21   -1    0    0  501  503  0.00000000000E+00  0.00000000000E+00 -0.29282491441E+03  0.29282491441E+03  0.00000000000E+00 0.  1.
  1000006    1    1    2  501    0  0.12080990547E+03 -0.23966652383E+03  0.16010780913E+03  0.46922232092E+03  0.35000000000E+03 0.  0.
 -1000006    1    1    2    0  505 -0.25158309903E+03  0.20402337332E+03  0.32151735634E+03  0.57514607101E+03  0.35000000000E+03 0.  0.
       21    1    1    2  504  503  0.67314825621E+02  0.51968314557E+02  0.90644854070E+03  0.91042899142E+03  0.00000000000E+00 0. -1.
       21    1    1    2  505  502  0.63458367935E+02 -0.16325164045E+02  0.10396398334E+03  0.12289013497E+03  0.00000000000E+00 0.  1.
<scales pt_clust_1="13000.00000" pt_clust_2="13000.00000" pt_clust_3="110.55075" pt_clust_4="65.52462"></scales>
<clustering>
<clus scale="   65.525">  1  6  2 -1</clus>
<clus scale="  110.551">  1  5  2 -1</clus>
<clus scale="  451.270">  1  4  2 -1</clus>
<clus scale="  451.270">  1  3  2 -1</clus>
</clustering>
</event>
<event>
 6   2  0.3464723E-02  0.3506072E+03  0.7816531E-02  0.1062366E+00
       21   -1    0    0  502  503  0.00000000000E+00  0.00000000000E+00  0.78090115683E+03  0.78090115683E+03  0.00000000000E+00 0.  1.
       -2   -1    0    0    0  501  0.00000000000E+00  0.00000000000E+00 -0.69165910622E+03  0.69165910622E+03  0.00000000000E+00 0.  1.
  1000006    1    1    2  502    0  0.10477374049E+03 -0.12835205076E+03  0.41277911622E+03  0.56598443832E+03  0.35000000000E+03 0.  0.
 -1000006    1    1    2    0  501  0.21398391180E+02  0.60442128804E+01 -0.47265938698E+03  0.58855867996E+03  0.35000000000E+03 0.  0.
       21    1    1    2  504  503  0.31154161410E+02  0.53059623968E+02  0.13155094520E+03  0.14522932435E+03  0.00000000000E+00 0.  1.
       -2    1    1    2    0  504 -0.15732629308E+03  0.69248213912E+02  0.17571376184E+02  0.17278782042E+03  0.00000000000E+00 0.  1.
<scales pt_clust_1="13000.00000" pt_clust_2="13000.00000" pt_clust_3="61.52971" pt_clust_4="171.07427"></scales>
<clustering>
<clus scale="   61.530">  1  5  2 -1</clus>
<clus scale="  171.074">  1  6  2 -1</clus>
<clus scale="  964.886">  3  4 -1 -1</clus>
<clus scale="  350.607">  1  3  2 -1</clus>
</clustering>
</event>
<event>
 5   1  0.3464723E-02  0.3579093E+03  0.7816531E-02  0.1059415E+00
       21   -1    0    0  504  502  0.00000000000E+00  0.00000000000E+00  0.60416270992E+03  0.60416270992E+03  0.00000000000E+00 0. -1.
       21   -1    0    0  501  503  0.00000000000E+00  0.00000000000E+00 -0.67613572174E+03  0.67613572174E+03  0.00000000000E+00 0.  1.
  1000006    1    1    2  501    0 -0.46221310592E+02  0.35431280584E+02  0.39019391610E+02  0.35695139462E+03  0.35000000000E+03 0.  0.
 -1000006    1    1    2    0  502 -0.41471239066E+02 -0.94136039869E+02  0.31653610088E+03  0.48298712285E+03  0.35000000000E+03 0.  0.
       21    1    1    2  504  503  0.87692549658E+02  0.58704759284E+02 -0.42752850431E+03  0.44035991419E+03  0.00000000000E+00 0.  1.
<scales pt_clust_1="13000.00000" pt_clust_2="13000.00000" pt_clust_3="105.52835"></scales>
<clustering>
<clus scale="  105.528">  2  5  1 -1</clus>
<clus scale="  357.909">  2  3  1 -1</clus>
<clus scale="  357.909">  1  3  2 -1</clus>
</clustering>
</event>
<event>
 5   1  0.3464723E-02  0.4444286E+03  0.7816531E-02  0.1029397E+00
        1   -1    0    0  503    0  0.00000000000E+00  0.00000000000E+00  0.45222500936E+03  0.45222500936E+03  0.00000000000E+00 0.  1.
       21   -1    0    0  501  503  0.00000000000E+00  0.00000000000E+00 -0.11342137389E+04  0.11342137389E+04  0.00000000000E+00 0.  1.
  1000006    1    1    2  501    0 -0.26355346337E+03  0.14215993949E+03 -0.89540747251E+03  0.10069381402E+04  0.35000000000E+03 0.  0.
 -1000006    1    1    2    0  502  0.11777807388E+03 -0.76285579950E+02  0.17074290775E+03  0.41393756165E+03  0.35000000000E+03 0.  0.
        1    1    1    2  502    0  0.14577538949E+03 -0.65874359536E+02  0.42675835181E+02  0.16556304640E+03  0.00000000000E+00 0.  1.
<scales pt_clust_1="13000.00000" pt_clust_2="13000.00000" pt_clust_3="159.96842"></scales>
<clustering>
<clus scale="  159.968">  1  5  2 -1</clus>
<clus scale="  444.429">  2  3  1 -1</clus>
<clus scale="  444.429">  2  3  1 -1</clus>
</clustering>
</event>
<event>
 5   1  0.3464723E-02  0.4334543E+03  0.7816531E-02  0.1032774E+00
        1   -1    0    0  503    0  0.00000000000E+00  0.00000000000E+00  0.15754708245E+04  0.15754708245E+04  0.00000000000E+00 0.  1.
       21   -1    0    0  501  503  0.00000000000E+00  0.00000000000E+00 -0.10052432771E+04  0.10052432771E+04  0.00000000000E+00 0.  1.
  1000006    1    1    2  501    0 -0.15137668154E+03  0.23994222378E+03 -0.76644613573E+03  0.88905953087E+03  0.35000000000E+03 0.  0.
 -1000006    1    1    2    0  502 -0.20805166872E+03 -0.21370651760E+03  0.20405828058E+03  0.50308622958E+03  0.35000000000E+03 0.  0.
        1    1    1    2  502    0  0.35942835026E+03 -0.26235706177E+02  0.11326154026E+04  0.11885683411E+04  0.00000000000E+00 0.  1.
<scales pt_clust_1="13000.00000" pt_clust_2="13000.00000" pt_clust_3="360.38459"></scales>
<clustering>
<clus scale="  360.385">  1  5  2 -1</clus>
<clus scale="  433.454">  2  3  1 -1</clus>
<clus scale="  433.454">  2  3  1 -1</clus>
</clustering>
</event>
<event>
 4   0  0.3464723E-02  0.3711920E+03  0.7816531E-02  0.1054238E+00
       21   -1    0    0  501  502  0.00000000000E+00  0.00000000000E+00  0.70163692209E+03  0.70163692209E+03  0.00000000000E+00 0. -1.
       21   -1    0    0  502  503  0.00000000000E+00  0.00000000000E+00 -0.21447682023E+03  0.21447682023E+03  0.00000000000E+00 0. -1.
  1000006    1    1    2  501    0  0.12139452111E+03  0.23385627733E+02  0.37665544218E+03  0.52882212460E+03  0.35000000000E+03 0.  0.
 -1000006    1    1    2    0  503 -0.12139452111E+03 -0.23385627733E+02  0.11050465968E+03  0.38729161771E+03  0.35000000000E+03 0.  0.
<scales pt_clust_1="13000.00000" pt_clust_2="13000.00000"></scales>
<clustering>
<clus scale="  371.192">  1  3  2 -1</clus>
<clus scale="  371.192">  1  3  2 -1</clus>
</clustering>
</event>
<event>
 5   1  0.3464723E-02  0.3500108E+03  0.7816531E-02  0.1062611E+00
       21   -1    0    0  504  502  0.00000000000E+00  0.00000000000E+00  0.20429614943E+03  0.20429614943E+03  0.00000000000E+00 0. -1.
       21   -1    0    0  501  503  0.00000000000E+00  0.00000000000E+00 -0.12664253011E+04  0.12664253011E+04  0.00000000000E+00 0. -1.
  1000006    1    1    2  501    0  0.28660035617E+02 -0.79939357263E+01 -0.43088934908E+03  0.55592349456E+03  0.35000000000E+03 0.  0.
 -1000006    1    1    2    0  502  0.10700491570E+02 -0.69749077997E+01 -0.76536148551E+02  0.35849816163E+03  0.35000000000E+03 0.  0.
       21    1    1    2  504  503 -0.39360527186E+02  0.14968843526E+02 -0.55470365406E+03  0.55629979436E+03  0.00000000000E+00 0. -1.
<scales pt_clust_1="13000.00000" pt_clust_2="13000.00000" pt_clust_3="42.11078"></scales>
<clustering>
<clus scale="   42.111">  2  5  1 -1</clus>
<clus scale="  350.011">  1  4  2 -1</clus>
<clus scale="  350.011">  1  3  2 -1</clus>
</clustering>
</event>
<event>
 4   0  0.3464723E-02  0.3950330E+03  0.7816531E-02  0.1045513E+00
       21   -1    0    0  501  502  0.00000000000E+00  0.00000000000E+00  0.10397806503E+03  0.10397806503E+03  0.00000000000E+00 0.  1.
       21   -1    0    0  502  503  0.00000000000E+00  0.00000000000E+00 -0.15787028932E+04  0.15787028932E+04  0.00000000000E+00 0.  1.
  1000006    1    1    2  501    0 -0.15203717686E+03 -0.10215549446E+03 -0.55047597850E+03  0.67755062623E+03  0.35000000000E+03 0.  0.
 -1000006    1    1    2    0  503  0.15203717686E+03  0.10215549446E+03 -0.92424884969E+03  0.10051303320E+04  0.35000000000E+03 0.  0.
<scales pt_clust_1="13000.00000" pt_clust_2="13000.00000"></scales>
<clustering>
<clus scale="  395.033">  1  3  2 -1</clus>
<clus scale="  395.033">  1  3  2 -1</clus>
</clustering>
</event>
<event>
 5   1  0.3464723E-02  0.5067763E+03  0.7816531E-02  0.1012025E+00
       21   -1    0    0  501  502  0.00000000000E+00  0.00000000000E+00  0.15219673463E+04  0.15219673463E+04  0.00000000000E+00 0.  1.
       21   -1    0    0  504  503  0.00000000000E+00  0.00000000000E+00 -0.96427793707E+03  0.96427793707E+03  0.00000000000E+00 0.  1.
  1000006    1    1    2  501    0 -0.31247950525E+03  0.18956529742E+03  0.13656237883E+04  0.14563676646E+04  0.35000000000E+03 0.  0.
 -1000006    1    1    2    0  503  0.38192272448E+03 -0.10707006999E+03 -0.64021241828E+03  0.83048233448E+03  0.35000000000E+03 0.  0.
       21    1    1    2  504  502 -0.69443219227E+02 -0.82495227434E+02 -0.16772196084E+03  0.19939528428E+03  0.00000000000E+00 0.  1.
<scales pt_clust_1="13000.00000" pt_clust_2="13000.00000" pt_clust_3="107.83238"></scales>
<clustering>
<clus scale="  107.832">  2  5  1 -1</clus>
<clus scale="  506.776">  2  4  1 -1</clus>
<clus scale="  506.776">  1  3  2 -1</clus>
</clustering>
</event>
<event>
 4   0  0.3464723E-02  0.4326809E+03  0.7816531E-02  0.1033016E+00
        2   -1    0    0  502    0  0.00000000000E+00  0.00000000000E+00  0.73242041768E+03  0.73242041768E+03  0.00000000000E+00 0.  1.
       -2   -1    0    0    0  501  0.00000000000E+00  0.00000000000E+00 -0.26747125260E+03  0.26747125260E+03  0.00000000000E+00 0. -1.
  1000006    1    1    2  502    0  0.25057784545E+03 -0.43858107784E+02  0.12718643445E+03  0.45098689488E+03  0.35000000000E+03 0.  0.
 -1000006    1    1    2    0  501 -0.25057784545E+03  0.43858107784E+02  0.33776273064E+03  0.54890477540E+03  0.35000000000E+03 0.  0.
<scales pt_clust_1="13000.00000" pt_clust_2="13000.00000"></scales>
<clustering>
<clus scale="  645.062">  3  4 -1 -1</clus>
<clus scale="  432.681">  1  3  2 -1</clus>
</clustering>
</event>
<event>
 6   2  0.3464723E-02  0.5002272E+03  0.7816531E-02  0.1013720E+00
       21   -1    0    0  501  503  0.00000000000E+00  0.00000000000E+00  0.45350841075E+03  0.45350841075E+03  0.00000000000E+00 0.  1.
        2   -1    0    0  503    0  0.00000000000E+00  0.00000000000E+00 -0.10161745809E+04  0.10161745809E+04  0.00000000000E+00 0. -1.
  1000006    1    1    2  501    0  0.13729413658E+03  0.35484743712E+03 -0.67315140243E+02  0.52134222127E+03  0.35000000000E+03 0.  0.
 -1000006    1    1    2    0  504  0.61729912911E+02 -0.35502072194E+03 -0.12192416836E+03  0.51692920016E+03  0.35000000000E+03 0.  0.
       21    1    1    2  504  502 -0.33158939540E+02  0.27941910640E+02 -0.45361712685E+02  0.62753092508E+02  0.00000000000E+00 0. -1.
        2    1    1    2  502    0 -0.16586510995E+03 -0.27768625828E+02 -0.32806514883E+03  0.36865847767E+03  0.00000000000E+00 0. -1.
<scales pt_clust_1="13000.00000" pt_clust_2="13000.00000" pt_clust_3="42.65876" pt_clust_4="216.02852"></scales>
<clustering>
<clus scale="   42.659">  5  6 -1 -1</clus>
<clus scale="  216.029">  2  5  1 -1</clus>
<clus scale="  500.227">  2  4  1 -1</clus>
<clus scale="  500.227">  1  3  2 -1</clus>
</clustering>
</event>
<event>
 5   1  0.3464723E-02  0.4472613E+03  0.7816531E-02  0.1028542E+00
       21   -1    0    0  504  502  0.00000000000E+00  0.00000000000E+00  0.11507299211E+04  0.11507299211E+04  0.00000000000E+00 0. -1.
       21   -1    0    0  502  503  0.00000000000E+00  0.00000000000E+00 -0.44382751472E+03  0.44382751472E+03  0.00000000000E+00 0. -1.
  1000006    1    1    2  501    0 -0.18006741908E+03 -0.20092256431E+03  0.94870654835E+02  0.45198959436E+03  0.35000000000E+03 0.  0.
 -1000006    1    1    2    0  503  0.24763678180E+03  0.15036266889E+03 -0.66164426488E+02  0.45914119749E+03  0.35000000000E+03 0.  0.
       21    1    1    2  504  501 -0.67569362722E+02  0.50559895422E+02  0.67819617808E+03  0.68342664402E+03  0.00000000000E+00 0. -1.
<scales pt_clust_1="13000.00000" pt_clust_2="13000.00000" pt_clust_3="84.39148"></scales>
<clustering>
<clus scale="   84.391">  1  5  2 -1</clus>
<clus scale="  447.261">  1  3  2 -1</clus>
<clus scale="  447.261">  1  3  2 -1</clus>
</clustering>
</event>
<event>
 5   1  0.3464723E-02  0.3790571E+03  0.7816531E-02  0.1051283E+00
       21   -1    0    0  503  502  0.00000000000E+00  0.00000000000E+00  0.87978993552E+03  0.87978993552E+03  0.00000000000E+00 0. -1.
       21   -1    0    0  504  503  0.00000000000E+00  0.00000000000E+00 -0.26353941794E+03  0.26353941794E+03  0.00000000000E+00 0. -1.
  1000006    1    1    2  501    0 -0.15479634141E+03  0.32470367357E+02  0.19278172428E+03  0.42974530281E+03  0.35000000000E+03 0.  0.
 -1000006    1    1    2    0  502  0.12990585944E+03 -0.51126352889E+02  0.50282510524E+03  0.62834904531E+03  0.35000000000E+03 0.  0.
       21    1    1    2  504  501  0.24890481973E+02  0.18655985532E+02 -0.79356311946E+02  0.85235005336E+02  0.00000000000E+00 0. -1.
<scales pt_clust_1="13000.00000" pt_clust_2="13000.00000" pt_clust_3="31.10598"></scales>
<clustering>
<clus scale="   31.106">  2  5  1 -1</clus>
<clus scale="  379.057">  2  3  1 -1</clus>
<clus scale="  379.057">  1  3  2 -1</clus>
</clustering>
</event>
<event>
 6   2  0.3464723E-02  0.4065435E+03  0.7816531E-02  0.1041537E+00
       21   -1    0    0  501  502  0.00000000000E+00  0.00000000000E+00  0.27447820031E+03  0.27447820031E+03  0.00000000000E+00 0. -1.
       21   -1    0    0  504  503  0.00000000000E+00  0.00000000000E+00 -0.13320540724E+04  0.13320540724E+04  0.00000000000E+00 0. -1.
  1000006    1    1    2  501    0  0.26326171862E+03  0.17056034418E+02 -0.30773824278E+03  0.53553754945E+03  0.35000000000E+03 0.  0.
 -1000006    1    1    2    0  505 -0.14860115419E+03  0.49010075327E+02 -0.67036537973E+03  0.77225257063E+03  0.35000000000E+03 0.  0.
       21    1    1    2  504  502 -0.52498090987E+02 -0.17784574588E+02  0.93504849097E+02  0.10869911433E+03  0.00000000000E+00 0. -1.
       21    1    1    2  505  503 -0.62162473448E+02 -0.48281535157E+02 -0.17297709869E+03  0.19004303832E+03  0.00000000000E+00 0. -1.
<scales pt_clust_1="13000.00000" pt_clust_2="13000.00000" pt_clust_3="55.42870" pt_clust_4="81.29250"></scales>
<clustering>
<clus scale="   55.429">  1  5  2 -1</clus>
<clus scale="   81.292">  2  6  1 -1</clus>
<clus scale="  406.543">  1  3  2 -1</clus>
<clus scale="  406.543">  1  3  2 -1</clus>
</clustering>
</event>
<event>
 4   0  0.3464723E-02  0.4647465E+03  0.7816531E-02  0.1023414E+00
       21   -1    0    0  503  502  0.00000000000E+00  0.00000000000E+00  0.10846580704E+04  0.10846580704E+04  0.00000000000E+00 0. -1.
       21   -1    0    0  501  503  0.00000000000E+00  0.00000000000E+00 -0.21349584501E+03  0.21349584501E+03  0.00000000000E+00 0.  1.
  1000006    1    1    2  501    0  0.84780416639E+02  0.29377139595E+03  0.26721771280E+03  0.53609202396E+03  0.35000000000E+03 0.  0.
 -1000006    1    1    2    0  502 -0.84780416639E+02 -0.29377139595E+03  0.60394451262E+03  0.76206189148E+03  0.35000000000E+03 0.  0.
<scales pt_clust_1="13000.00000" pt_clust_2="13000.00000"></scales>
<clustering>
<clus scale="  464.747">  2  3  1 -1</clus>
<clus scale="  464.747">  1  3  2 -1</clus>
</clustering>
</event>
<event>
 4   0  0.3464723E-02  0.4681232E+03  0.7816531E-02  0.1022451E+00
       21   -1    0    0  503  502  0.00000000000E+00  0.00000000000E+00  0.65744166565E+03  0.65744166565E+03  0.00000000000E+00 0.  1.
       21   -1    0    0  501  503  0.00000000000E+00  0.00000000000E+00 -0.33584448773E+03  0.33584448773E+03  0.00000000000E+00 0. -1.
  1000006    1    1    2  501    0 -0.29822450586E+03  0.87758057137E+02  0.11775116188E+03  0.48270557135E+03  0.35000000000E+03 0.  0.
 -1000006    1    1    2    0  502  0.29822450586E+03 -0.87758057137E+02  0.20384601604E+03  0.51058058203E+03  0.35000000000E+03 0.  0.
<scales pt_clust_1="13000.00000" pt_clust_2="13000.00000"></scales>
<clustering>
<clus scale="  468.123">  2  3  1 -1</clus>
<clus scale="  468.123">  1  3  2 -1</clus>
</clustering>
</event>
<event>
 5   1  0.3464723E-02  0.3914596E+03  0.7816531E-02  0.1046778E+00
       -2   -1    0    0    0  501  0.00000000000E+00  0.00000000000E+00  0.31157689695E+03  0.31157689695E+03  0.00000000000E+00 0.  1.
        2   -1    0    0  502    0  0.00000000000E+00  0.00000000000E+00 -0.15888626237E+04  0.15888626237E+04  0.00000000000E+00 0. -1.
  1000006    1    1    2  502    0  0.98241426519E+02 -0.12234173078E+03 -0.73364834996E+03  0.82786398543E+03  0.35000000000E+03 0.  0.
 -1000006    1    1    2    0  503  0.19387620912E+03  0.27803659325E+03 -0.55858190696E+03  0.74121931871E+03  0.35000000000E+03 0.  0.
       21    1    1    2  503  501 -0.29211763564E+03 -0.15569486247E+03  0.14944530135E+02  0.33135621653E+03  0.00000000000E+00 0.  1.
<scales pt_clust_1="13000.00000" pt_clust_2="13000.00000" pt_clust_3="331.01904"></scales>
<clustering>
<clus scale="  331.019">  1  5  2 -1</clus>
<clus scale="  561.329">  3  4 -1 -1</clus>
<clus scale="  391.460">  2  3  1 -1</clus>
</clustering>
</event>
<event>
 5   1  0.3464723E-02  0.4181823E+03  0.7816531E-02  0.1037660E+00
       21   -1    0    0  504  502  0.00000000000E+00  0.00000000000E+00  0.17508475615E+04  0.17508475615E+04  0.00000000000E+00 0. -1.
       21   -1    0    0  501  503  0.00000000000E+00  0.00000000000E+00 -0.24504862949E+03  0.24504862949E+03  0.00000000000E+00 0. -1.
  1000006    1    1    2  501    0  0.18968804065E+03 -0.13320860382E+03  0.70428833754E+03  0.81990740165E+03  0.35000000000E+03 0.  0.
 -1000006    1    1    2    0  502 -0.20594649700E+03  0.97901217470E+02  0.94186895499E+03  0.10303473863E+04  0.35000000000E+03 0.  0.
       21    1    1    2  504  503  0.16258456344E+02  0.35307386345E+02 -0.14035836050E+03  0.14564140310E+03  0.00000000000E+00 0. -1.
<scales pt_clust_1="13000.00000" pt_clust_2="13000.00000" pt_clust_3="38.87093"></scales>
<clustering>
<clus scale="   38.871">  2  5  1 -1</clus>
<clus scale="  418.182">  1  4  2 -1</clus>
<clus scale="  418.182">  1  3  2 -1</clus>
</clustering>
</event>
<event>
 4   0  0.3464723E-02  0.6289851E+03  0.7816531E-02  0.9847031E-01
       21   -1    0    0  501  502  0.00000000000E+00  0.00000000000E+00  0.22765250301E+03  0.22765250301E+03  0.00000000000E+00 0.  1.
       21   -1    0    0  502  503  0.00000000000E+00  0.00000000000E+00 -0.18429073967E+04  0.18429073967E+04  0.00000000000E+00 0. -1.
  1000006    1    1    2  501    0  0.25768550096E+03 -0.45466521219E+03 -0.56042525477E+03  0.84243619270E+03  0.35000000000E+03 0.  0.
 -1000006    1    1    2    0  503 -0.25768550096E+03  0.45466521219E+03 -0.10548296389E+04  0.12281237070E+04  0.35000000000E+03 0.  0.
<scales pt_clust_1="13000.00000" pt_clust_2="13000.00000"></scales>
<clustering>
<clus scale="  628.985">  1  3  2 -1</clus>
<clus scale="  628.985">  1  3  2 -1</clus>
</clustering>
</event>
<event>
 4   0  0.3464723E-02  0.3800987E+03  0.7816531E-02  0.1050897E+00
       21   -1    0    0  503  502  0.00000000000E+00  0.00000000000E+00  0.69816848523E+02  0.69816848523E+02  0.00000000000E+00 0. -1.
       21   -1    0    0  501  503  0.00000000000E+00  0.00000000000E+00 -0.22252316732E+04  0.22252316732E+04  0.00000000000E+00 0. -1.
  1000006    1    1    2  501    0  0.14631502473E+03 -0.23810027144E+02 -0.13814331519E+04  0.14327709367E+04  0.35000000000E+03 0.  0.
 -1000006    1    1    2    0  502 -0.14631502473E+03  0.23810027144E+02 -0.77398167276E+03  0.86227758501E+03  0.35000000000E+03 0.  0.
<scales pt_clust_1="13000.00000" pt_clust_2="13000.00000"></scales>
<clustering>
<clus scale="  380.099">  2  3  1 -1</clus>
<clus scale="  380.099">  1  3  2 -1</clus>
</clustering>
</event>
<event>
 5   1  0.3464723E-02  0.4386930E+03  0.7816531E-02  0.1031149E+00
       21   -1    0    0  504  502  0.00000000000E+00  0.00000000000E+00  0.70509487080E+03  0.70509487080E+03  0.00000000000E+00 0.  1.
       21   -1    0    0  501  503  0.00000000000E+00  0.00000000000E+00 -0.40657431185E+03  0.40657431185E+03  0.00000000000E+00 0.  1.
  1000006    1    1    2  501    0 -0.18584045359E+03  0.14848911983E+03  0.10791030957E+03  0.43672683432E+03  0.35000000000E+03 0.  0.
 -1000006    1    1    2    0  502  0.17562899131E+03 -0.22747691190E+03  0.29734925895E+03  0.54176366603E+03  0.35000000000E+03 0.  0.
       21    1    1    2  504  503  0.10211462281E+02  0.78987792070E+02 -0.10673900956E+03  0.13317868230E+03  0.00000000000E+00 0. -1.
<scales pt_clust_1="13000.00000" pt_clust_2="13000.00000" pt_clust_3="79.64512"></scales>
<clustering>
<clus scale="   79.645">  2  5  1 -1</clus>
<clus scale="  438.693">  2  3  1 -1</clus>
<clus scale="  438.693">  1  3  2 -1</clus>
</clustering>
</event>
<event>
 5   1  0.3464723E-02  0.3622501E+03  0.7816531E-02  0.1057696E+00
       21   -1    0    0  504  502  0.00000000000E+00  0.00000000000E+00  0.36604454137E+03  0.36604454137E+03  0.00000000000E+00 0.  1.
       21   -1    0    0  501  503  0.00000000000E+00  0.00000000000E+00 -0.52053970933E+03  0.52053970933E+03  0.00000000000E+00 0.  1.
  1000006    1    1    2  501    0  0.33768957600E+02 -0.10826418743E+03 -0.63655326564E+02  0.37338114224E+03  0.35000000000E+03 0.  0.
 -1000006    1    1    2    0  502  0.51031613623E+02  0.80095556676E+02  0.28889693286E+02  0.36380508266E+03  0.35000000000E+03 0.  0.
       21    1    1    2  504  503 -0.84800571223E+02  0.28168630753E+02 -0.11972953469E+03  0.14939802581E+03  0.00000000000E+00 0.  1.
<scales pt_clust_1="13000.00000" pt_clust_2="13000.00000" pt_clust_3="89.35664"></scales>
<clustering>
<clus scale="   89.357">  2  5  1 -1</clus>
<clus scale="  362.250">  1  4  2 -1</clus>
<clus scale="  362.250">  1  3  2 -1</clus>
</clustering>
</event>
<event>
 6   2  0.3464723E-02  0.3923586E+03  0.7816531E-02  0.1046458E+00
       21   -1    0    0  504  502  0.00000000000E+00  0.00000000000E+00  0.89662799901E+03  0.89662799901E+03  0.00000000000E+00 0. -1.
       21   -1    0    0  501  503  0.00000000000E+00  0.00000000000E+00 -0.14489736836E+04  0.14489736836E+04  0.00000000000E+00 0. -1.
  1000006    1    1    2  501    0  0.19424550616E+03 -0.39435078700E+02  0.73693131799E+01  0.40229435600E+03  0.35000000000E+03 0.  0.
 -1000006    1    1    2    0  502 -0.15040743429E+03  0.26825712419E+00  0.59907678688E+03  0.70994046570E+03  0.35000000000E+03 0.  0.
       21    1    1    2  504  505 -0.31085668532E+02 -0.66800411117E+01  0.29945806257E+02  0.43677145622E+02  0.00000000000E+00 0.  1.
       21    1    1    2  505  503 -0.12752403332E+02  0.45846862688E+02 -0.11887375909E+04  0.11896897153E+04  0.00000000000E+00 0. -1.
<scales pt_clust_1="13000.00000" pt_clust_2="13000.00000" pt_clust_3="31.79531" pt_clust_4="47.58843"></scales>
<clustering>
<clus scale="   31.795">  1  5  2 -1</clus>
<clus scale="   47.588">  2  6  1 -1</clus>
<clus scale="  392.359">  2  3  1 -1</clus>
<clus scale="  392.359">  1  3  2 -1</clus>
</clustering>
</event>
<event>
 4   0  0.3464723E-02  0.5449861E+03  0.7816531E-02  0.1002661E+00
       21   -1    0    0  503  502  0.00000000000E+00  0.00000000000E+00  0.12477172650E+03  0.12477172650E+03  0.00000000000E+00 0. -1.
       21   -1    0    0  501  503  0.00000000000E+00  0.00000000000E+00 -0.25868329256E+04  0.25868329256E+04  0.00000000000E+00 0.  1.
  1000006    1    1    2  501    0 -0.24703348738E+02 -0.41701271981E+03 -0.16140090164E+04  0.17035360193E+04  0.35000000000E+03 0.  0.
 -1000006    1    1    2    0  502  0.24703348738E+02  0.41701271981E+03 -0.84805218269E+03  0.10080686328E+04  0.35000000000E+03 0.  0.
<scales pt_clust_1="13000.00000" pt_clust_2="13000.00000"></scales>
<clustering>
<clus scale="  544.986">  2  3  1 -1</clus>
<clus scale="  544.986">  1  3  2 -1</clus>
</clustering>
</event>
<event>
 6   2  0.3464723E-02  0.3642809E+03  0.7816531E-02  0.1056902E+00
        2   -1    0    0  501    0  0.00000000000E+00  0.00000000000E+00  0.27455513326E+04  0.27455513326E+04  0.00000000000E+00 0. -1.
       21   -1    0    0  502  503  0.00000000000E+00  0.00000000000E+00 -0.17542453336E+03  0.17542453336E+03  0.00000000000E+00 0.  1.
  1000006    1    1    2  501    0  0.95998558108E+02 -0.14955351677E+03  0.72345192678E+03  0.82308241865E+03  0.35000000000E+03 0.  0.
 -1000006    1    1    2    0  504  0.59059948832E+02  0.81339598974E+02  0.24301600566E+03  0.43779103111E+03  0.35000000000E+03 0.  0.
       21    1    1    2  504  503 -0.36034905211E+02 -0.41135725239E+01 -0.12189698933E+02  0.38262574829E+02  0.00000000000E+00 0.  1.
        2    1    1    2  502    0 -0.11902360173E+03  0.72327490315E+02  0.16158485657E+04  0.16218398414E+04  0.00000000000E+00 0. -1.
<scales pt_clust_1="13000.00000" pt_clust_2="13000.00000" pt_clust_3="36.26894" pt_clust_4="139.84857"></scales>
<clustering>
<clus scale="   36.269">  2  5  1 -1</clus>
<clus scale="  139.849">  1  6  2 -1</clus>
<clus scale="  364.281">  2  4  1 -1</clus>
<clus scale="  364.281">  2  3  1 -1</clus>
</clustering>
</event>
<event>
 5   1  0.3464723E-02  0.4139406E+03  0.7816531E-02  0.1039057E+00
       21   -1    0    0  501  503  0.00000000000E+00  0.00000000000E+00  0.80531677861E+03  0.80531677861E+03  0.00000000000E+00 0.  1.
        4   -1    0    0  503    0  0.00000000000E+00  0.00000000000E+00 -0.75395754297E+03  0.75395754297E+03  0.00000000000E+00 0.  1.
  1000006    1    1    2  501    0 -0.13770301530E+03 -0.14176945826E+03  0.34842818846E+03  0.53194257419E+03  0.35000000000E+03 0.  0.
 -1000006    1    1    2    0  502  0.12295359644E+03  0.22873789699E+03  0.23010030465E+03  0.49283340248E+03  0.35000000000E+03 0.  0.
        4    1    1    2  502    0  0.14749418863E+02 -0.86968438733E+02 -0.52716925747E+03  0.53449834492E+03  0.00000000000E+00 0.  1.
<scales pt_clust_1="13000.00000" pt_clust_2="13000.00000" pt_clust_3="88.21029"></scales>
<clustering>
<clus scale="   88.210">  2  5  1 -1</clus>
<clus scale="  413.941">  1  3  2 -1</clus>
<clus scale="  413.941">  1  3  2 -1</clus>
</clustering>
</event>
<event>
 5   1  0.3464723E-02  0.5085704E+03  0.7816531E-02  0.1011566E+00
       21   -1    0    0  502  503  0.00000000000E+00  0.00000000000E+00  0.92872445093E+03  0.92872445093E+03  0.00000000000E+00 0.  1.
        2   -1    0    0  501    0  0.00000000000E+00  0.00000000000E+00 -0.75729777948E+03  0.75729777948E+03  0.00000000000E+00 0. -1.
  1000006    1    1    2  501    0 -0.18759143330E+03 -0.31236837608E+03  0.31705000551E+03  0.59647737109E+03  0.35000000000E+03 0.  0.
 -1000006    1    1    2    0  503  0.16548460734E+03  0.33561862051E+03  0.33220334184E+03  0.61064234543E+03  0.35000000000E+03 0.  0.
        2    1    1    2  502    0  0.22106825956E+02 -0.23250244435E+02 -0.47782667589E+03  0.47890251390E+03  0.00000000000E+00 0. -1.
<scales pt_clust_1="13000.00000" pt_clust_2="13000.00000" pt_clust_3="32.08248"></scales>
<clustering>
<clus scale="   32.082">  2  5  1 -1</clus>
<clus scale="  508.570">  1  4  2 -1</clus>
<clus scale="  508.570">  1  3  2 -1</clus>
</clustering>
</event>
<event>
 4   0  0.3464723E-02  0.3584919E+03  0.7816531E-02  0.1059183E+00
       21   -1    0    0  503  502  0.00000000000E+00  0.00000000000E+00  0.45069338132E+03  0.45069338132E+03  0.00000000000E+00 0. -1.
       21   -1    0    0  501  503  0.00000000000E+00  0.00000000000E+00 -0.30633698517E+03  0.30633698517E+03  0.00000000000E+00 0. -1.
  1000006    1    1    2  501    0  0.70343748954E+02 -0.32682786862E+02 -0.27360305765E+02  0.35953441269E+03  0.35000000000E+03 0.  0.
 -1000006    1    1    2    0  502 -0.70343748954E+02  0.32682786862E+02  0.17171670191E+03  0.39749595380E+03  0.35000000000E+03 0.  0.
<scales pt_clust_1="13000.00000" pt_clust_2="13000.00000"></scales>
<clustering>
<clus scale="  358.492">  2  3  1 -1</clus>
<clus scale="  358.492">  1  3  2 -1</clus>
</clustering>
</event>
<event>
 6   2  0.3464723E-02  0.4856128E+03  0.7816531E-02  0.1017604E+00
       21   -1    0    0  502  503  0.00000000000E+00  0.00000000000E+00  0.29740253283E+03  0.29740253283E+03  0.00000000000E+00 0.  1.
        2   -1    0    0  504    0  0.00000000000E+00  0.00000000000E+00 -0.17538013425E+04  0.17538013425E+04  0.00000000000E+00 0.  1.
  1000006    1    1    2  501    0  0.33477534490E+03 -0.15583914382E+03 -0.31178423431E+03  0.59671582773E+03  0.35000000000E+03 0.  0.
 -1000006    1    1    2    0  503 -0.29211464381E+03  0.10479805788E+03 -0.22873197155E+03  0.52070328679E+03  0.35000000000E+03 0.  0.
       21    1    1    2  504  501 -0.54093235367E+02 -0.17183479497E+01 -0.82574186056E+02  0.98729565151E+02  0.00000000000E+00 0.  1.
        2    1    1    2  502    0  0.11432534277E+02  0.52759433894E+02 -0.83330841777E+03  0.83505519568E+03  0.00000000000E+00 0.  1.
<scales pt_clust_1="13000.00000" pt_clust_2="13000.00000" pt_clust_3="53.08063" pt_clust_4="53.98389"></scales>
<clustering>
<clus scale="   53.984">  2  6  1 -1</clus>
<clus scale="   53.081">  2  5  1 -1</clus>
<clus scale="  485.613">  1  4  2 -1</clus>
<clus scale="  485.613">  1  3  2 -1</clus>
</clustering>
</event>
<event>
 5   1  0.3464723E-02  0.3732277E+03  0.7816531E-02  0.1053466E+00
       21   -1    0    0  501  503  0.00000000000E+00  0.00000000000E+00  0.41228581687E+03  0.41228581687E+03  0.00000000000E+00 0. -1.
        1   -1    0    0  503    0  0.00000000000E+00  0.00000000000E+00 -0.19991076152E+04  0.19991076152E+04  0.00000000000E+00 0. -1.
  1000006    1    1    2  501    0 -0.11712517589E+03  0.39877539235E+02  0.13908818591E+03  0.39642659904E+03  0.35000000000E+03 0.  0.
 -1000006    1    1    2    0  502  0.14103834679E+03 -0.20106324713E+02 -0.10287698365E+03  0.39163727264E+03  0.35000000000E+03 0.  0.
        1    1    1    2  502    0 -0.23913170893E+02 -0.19771214522E+02 -0.16230330006E+04  0.16233295604E+04  0.00000000000E+00 0. -1.
<scales pt_clust_1="13000.00000" pt_clust_2="13000.00000" pt_clust_3="31.02806"></scales>
<clustering>
<clus scale="   31.028">  2  5  1 -1</clus>
<clus scale="  373.228">  1  3  2 -1</clus>
<clus scale="  373.228">  1  3  2 -1</clus>
</clustering>
</event>
<event>
 5   1  0.3464723E-02  0.4648156E+03  0.7816531E-02  0.1023394E+00
       21   -1    0    0  503  502  0.00000000000E+00  0.00000000000E+00  0.10121640436E+04  0.10121640436E+04  0.00000000000E+00 0. -1.
       21   -1    0    0  504  503  0.00000000000E+00  0.00000000000E+00 -0.29322100292E+03  0.29322100292E+03  0.00000000000E+00 0. -1.
  1000006    1    1    2  501    0  0.45796764101E+02 -0.28332091097E+03  0.80433630987E+02  0.45971474980E+03  0.35000000000E+03 0.  0.
 -1000006    1    1    2    0  502 -0.84977978476E+01  0.31414343256E+03  0.64343229287E+03  0.79703414249E+03  0.35000000000E+03 0.  0.
       21    1    1    2  504  501 -0.37298966253E+02 -0.30822521598E+02 -0.49228831486E+01  0.48636154245E+02  0.00000000000E+00 0. -1.
<scales pt_clust_1="13000.00000" pt_clust_2="13000.00000" pt_clust_3="48.38637"></scales>
<clustering>
<clus scale="   48.386">  2  5  1 -1</clus>
<clus scale="  464.816">  2  3  1 -1</clus>
<clus scale="  464.816">  1  3  2 -1</clus>
</clustering>
</event>
<event>
 6   2  0.3464723E-02  0.3535807E+03  0.7816531E-02  0.1061155E+00
       21   -1    0    0  501  503  0.00000000000E+00  0.00000000000E+00  0.16071394512E+04  0.16071394512E+04  0.00000000000E+00 0.  1.
       -1   -1    0    0    0  501  0.00000000000E+00  0.00000000000E+00 -0.20556009458E+03  0.20556009458E+03  0.00000000000E+00 0.  1.
  1000006    1    1    2  502    0 -0.10103217530E+03  0.91217671757E+02  0.68821995004E+03  0.78401203034E+03  0.35000000000E+03 0.  0.
 -1000006    1    1    2    0  503 -0.59928074875E+02 -0.89899766483E+01  0.69949044069E+03  0.78451199510E+03  0.35000000000E+03 0.  0.
       21    1    1    2  504  502  0.84537388787E+02 -0.46231777253E+02  0.88966898985E+02  0.13114517317E+03  0.00000000000E+00 0. -1.
       -1    1    1    2    0  504  0.76422861385E+02 -0.35995917856E+02 -0.75097933046E+02  0.11303034722E+03  0.00000000000E+00 0.  1.
<scales pt_clust_1="13000.00000" pt_clust_2="13000.00000" pt_clust_3="112.30672" pt_clust_4="84.47579"></scales>
<clustering>
<clus scale="   84.476">  2  6  1 -1</clus>
<clus scale="  112.307">  2  5  1 -1</clus>
<clus scale="  353.581">  2  3  1 -1</clus>
<clus scale="  353.581">  1  3  2 -1</clus>
</clustering>
</event>
<event>
 6   2  0.3464723E-02  0.4105925E+03  0.7816531E-02  0.1040172E+00
       21   -1    0    0  505  502  0.00000000000E+00  0.00000000000E+00  0.18116481823E+04  0.18116481823E+04  0.00000000000E+00 0.  1.
       21   -1    0    0  501  503  0.00000000000E+00  0.00000000000E+00 -0.22205007625E+03  0.22205007625E+03  0.00000000000E+00 0. -1.
  1000006    1    1    2  501    0 -0.33303552526E+03  0.37098870131E+02  0.29290599176E+03  0.56620041262E+03  0.35000000000E+03 0.  0.
 -1000006    1    1    2    0  502  0.13424124359E+03 -0.41934297105E+02  0.10617810036E+04  0.11267910615E+04  0.35000000000E+03 0.  0.
       21    1    1    2  504  503  0.13528230983E+03  0.16611361267E+02  0.50572101379E+02  0.14537805238E+03  0.00000000000E+00 0. -1.
       21    1    1    2  505  504  0.63511971835E+02 -0.11775934293E+02  0.18433900935E+03  0.19532873205E+03  0.00000000000E+00 0.  1.
<scales pt_clust_1="13000.00000" pt_clust_2="13000.00000" pt_clust_3="140.02478" pt_clust_4="64.59445"></scales>
<clustering>
<clus scale="   64.594">  1  6  2 -1</clus>
<clus scale="  140.025">  2  5  1 -1</clus>
<clus scale="  410.592">  1  4  2 -1</clus>
<clus scale="  410.592">  1  3  2 -1</clus>
</clustering>
</event>
<event>
 6   2  0.3464723E-02  0.3907736E+03  0.7816531E-02  0.1047022E+00
       21   -1    0    0  501  502  0.00000000000E+00  0.00000000000E+00  0.10434114652E+04  0.10434114652E+04  0.00000000000E+00 0. -1.
       21   -1    0    0  505  503  0.00000000000E+00  0.00000000000E+00 -0.44464474111E+03  0.44464474111E+03  0.00000000000E+00 0. -1.
  1000006    1    1    2  501    0  0.14113947121E+03 -0.36482974203E+02  0.45176643350E+03  0.58978323830E+03  0.35000000000E+03 0.  0.
 -1000006    1    1    2    0  503 -0.92364689052E+02  0.11962019199E+03 -0.31038031406E+02  0.38249651699E+03  0.35000000000E+03 0.  0.
       21    1    1    2  504  502  0.25693570569E+02 -0.99922170998E+02  0.32998188679E+03  0.34573493523E+03  0.00000000000E+00 0.  1.
       21    1    1    2  505  504 -0.74468352725E+02  0.16784953215E+02 -0.15194356479E+03  0.17004151580E+03  0.00000000000E+00 0. -1.
<scales pt_clust_1="13000.00000" pt_clust_2="13000.00000" pt_clust_3="102.22371" pt_clust_4="76.33656"></scales>
<clustering>
<clus scale="   76.337">  2  6  1 -1</clus>
<clus scale="  102.224">  1  5  2 -1</clus>
<clus scale="  390.774">  1  3  2 -1</clus>
<clus scale="  390.774">  1  3  2 -1</clus>
</clustering>
</event>
<event>
 5   1  0.3464723E-02  0.3592704E+03  0.7816531E-02  0.1058873E+00
        2   -1    0    0  501    0  0.00000000000E+00  0.00000000000E+00  0.94950778510E+03  0.94950778510E+03  0.00000000000E+00 0. -1.
       21   -1    0    0  502  503  0.00000000000E+00  0.00000000000E+00 -0.18156397640E+03  0.18156397640E+03  0.00000000000E+00 0. -1.
  1000006    1    1    2  501    0  0.26656535741E+02  0.55980222716E+02  0.55055452100E+03  0.65532788498E+03  0.35000000000E+03 0.  0.
 -1000006    1    1    2    0  503  0.15474940558E+02 -0.92672553005E+02  0.16160221777E+03  0.39679081725E+03  0.35000000000E+03 0.  0.
        2    1    1    2  502    0 -0.42131476299E+02  0.36692330289E+02  0.55787069936E+02  0.78953059277E+02  0.00000000000E+00 0. -1.
<scales pt_clust_1="13000.00000" pt_clust_2="13000.00000" pt_clust_3="55.86939"></scales>
<clustering>
<clus scale="   55.869">  1  5  2 -1</clus>
<clus scale="  359.270">  1  3  2 -1</clus>
<clus scale="  359.270">  2  3  1 -1</clus>
</clustering>
</event>
<event>
 6   2  0.3464723E-02  0.4138233E+03  0.7816531E-02  0.1039096E+00
       21   -1    0    0  501  502  0.00000000000E+00  0.00000000000E+00  0.40403990797E+03  0.40403990797E+03  0.00000000000E+00 0. -1.
       21   -1    0    0  504  503  0.00000000000E+00  0.00000000000E+00 -0.20017640234E+04  0.20017640234E+04  0.00000000000E+00 0.  1.
  1000006    1    1    2  501    0 -0.17541844288E+03 -0.10635400922E+03  0.16034386699E+03  0.43622581430E+03  0.35000000000E+03 0.  0.
 -1000006    1    1    2    0  503  0.16434378178E+03  0.40457556448E+03 -0.12126895099E+04  0.13355920460E+04  0.35000000000E+03 0.  0.
       21    1    1    2  504  505  0.50711166278E+02 -0.84823913998E+02 -0.23797495503E+03  0.25767964218E+03  0.00000000000E+00 0.  1.
       21    1    1    2  505  502 -0.39636505177E+02 -0.21339764126E+03 -0.30740351752E+03  0.37630642888E+03  0.00000000000E+00 0.  1.
<scales pt_clust_1="13000.00000" pt_clust_2="13000.00000" pt_clust_3="83.85141" pt_clust_4="323.26562"></scales>
<clustering>
<clus scale="   83.851">  5  6 -1 -1</clus>
<clus scale="  323.266">  2  5  1 -1</clus>
<clus scale="  413.823">  2  4  1 -1</clus>
<clus scale="  413.823">  1  3  2 -1</clus>
</clustering>
</event>
<event>
 6   2  0.3464723E-02  0.7672693E+03  0.7816531E-02  0.9608640E-01
        1   -1    0    0  503    0  0.00000000000E+00  0.00000000000E+00  0.31076140100E+04  0.31076140100E+04  0.00000000000E+00 0.  1.
       -1   -1    0    0    0  501  0.00000000000E+00  0.00000000000E+00 -0.59739836272E+03  0.59739836272E+03  0.00000000000E+00 0. -1.
  1000006    1    1    2  502    0 -0.35688542823E+03 -0.61935960699E+03  0.16666060854E+03  0.81317236186E+03  0.35000000000E+03 0.  0.
 -1000006    1    1    2    0  501  0.32668609804E+03  0.55779771572E+03  0.31349813000E+03  0.79915153496E+03  0.35000000000E+03 0.  0.
       21    1    1    2  503  504 -0.36205345173E+02 -0.25860844399E+02  0.19641244247E+04  0.19646283022E+04  0.00000000000E+00 0.  1.
       21    1    1    2  504  502  0.66404675355E+02  0.87422735672E+02  0.65932484014E+02  0.12806017363E+03  0.00000000000E+00 0. -1.
<scales pt_clust_1="13000.00000" pt_clust_2="13000.00000" pt_clust_3="44.49281" pt_clust_4="106.18366"></scales>
<clustering>
<clus scale="   44.493">  1  5  2 -1</clus>
<clus scale="  106.184">  1  6  2 -1</clus>
<clus scale=" 1413.094">  3  4 -1 -1</clus>
<clus scale="  767.269">  1  3  2 -1</clus>
</clustering>
</event>
<event>
 5   1  0.3464723E-02  0.4009086E+03  0.7816531E-02  0.1043465E+00
       21   -1    0    0  504  502  0.00000000000E+00  0.00000000000E+00  0.25914054977E+04  0.25914054977E+04  0.00000000000E+00 0.  1.
       21   -1    0    0  502  503  0.00000000000E+00  0.00000000000E+00 -0.26053432792E+03  0.26053432792E+03  0.00000000000E+00 0.  1.
  1000006    1    1    2  501    0 -0.78497809205E+02  0.21138465611E+03  0.24856544838E+03  0.48490221799E+03  0.35000000000E+03 0.  0.
 -1000006    1    1    2    0  503  0.50059999293E+02 -0.16635331342E+03  0.12679203863E+03  0.41079879439E+03  0.35000000000E+03 0.  0.
       21    1    1    2  504  501  0.28437809911E+02 -0.45031342683E+02  0.19555136828E+04  0.19562388132E+04  0.00000000000E+00 0.  1.
<scales pt_clust_1="13000.00000" pt_clust_2="13000.00000" pt_clust_3="53.25909"></scales>
<clustering>
<clus scale="   53.259">  1  5  2 -1</clus>
<clus scale="  400.909">  1  3  2 -1</clus>
<clus scale="  400.909">  1  3  2 -1</clus>
</clustering>
</event>
<event>
 5   1  0.3464723E-02  0.4227898E+03  0.7816531E-02  0.1036162E+00
       21   -1    0    0  501  502  0.00000000000E+00  0.00000000000E+00  0.12707338500E+04  0.12707338500E+04  0.00000000000E+00 0.  1.
       21   -1    0    0  504  503  0.00000000000E+00  0.00000000000E+00 -0.87694110268E+03  0.87694110268E+03  0.00000000000E+00 0.  1.
  1000006    1    1    2  501    0 -0.13441842063E+03 -0.16286356253E+03  0.35236974798E+03  0.53968258365E+03  0.35000000000E+03 0.  0.
 -1000006    1    1    2    0  503  0.14604233535E+03  0.19114143260E+03 -0.72539129068E+03  0.84056881668E+03  0.35000000000E+03 0.  0.
       21    1    1    2  504  502 -0.11623914715E+02 -0.28277870067E+02  0.76681429003E+03  0.76742355236E+03  0.00000000000E+00 0.  1.
<scales pt_clust_1="13000.00000" pt_clust_2="13000.00000" pt_clust_3="30.57374"></scales>
<clustering>
<clus scale="   30.574">  1  5  2 -1</clus>
<clus scale="  422.790">  2  4  1 -1</clus>
<clus scale="  422.790">  1  3  2 -1</clus>
</clustering>
</event>
<event>
 5   1  0.3464723E-02  0.3579146E+03  0.7816531E-02  0.1059413E+00
        2   -1    0    0  501    0  0.00000000000E+00  0.00000000000E+00  0.45193636718E+04  0.45193636718E+04  0.00000000000E+00 0. -1.
       21   -1    0    0  502  503  0.00000000000E+00  0.00000000000E+00 -0.10882751434E+03  0.10882751434E+03  0.00000000000E+00 0. -1.
  1000006    1    1    2  501    0  0.39198683413E+02 -0.12803620065E+02  0.63575194278E+03  0.72689820623E+03  0.35000000000E+03 0.  0.
 -1000006    1    1    2    0  503 -0.32517671358E+01  0.12035930206E+03  0.48767710269E+03  0.61223026066E+03  0.35000000000E+03 0.  0.
        2    1    1    2  502    0 -0.35946916277E+02 -0.10755568199E+03  0.32871071120E+04  0.32890627193E+04  0.00000000000E+00 0. -1.
<scales pt_clust_1="13000.00000" pt_clust_2="13000.00000" pt_clust_3="113.40373"></scales>
<clustering>
<clus scale="  113.404">  1  5  2 -1</clus>
<clus scale="  357.915">  2  4  1 -1</clus>
<clus scale="  357.915">  2  3  1 -1</clus>
</clustering>
</event>
<event>
 4   0  0.3464723E-02  0.4293556E+03  0.7816531E-02  0.1034064E+00
       21   -1    0    0  501  502  0.00000000000E+00  0.00000000000E+00  0.78974970953E+03  0.78974970953E+03  0.00000000000E+00 0.  1.
       21   -1    0    0  502  503  0.00000000000E+00  0.00000000000E+00 -0.37161462202E+03  0.37161462202E+03  0.00000000000E+00 0.  1.
  1000006    1    1    2  501    0  0.13185775999E+03 -0.21085486629E+03  0.56317246229E+03  0.70817333033E+03  0.35000000000E+03 0.  0.
 -1000006    1    1    2    0  503 -0.13185775999E+03  0.21085486629E+03 -0.14503737478E+03  0.45319100122E+03  0.35000000000E+03 0.  0.
<scales pt_clust_1="13000.00000" pt_clust_2="13000.00000"></scales>
<clustering>
<clus scale="  429.356">  1  3  2 -1</clus>
<clus scale="  429.356">  1  3  2 -1</clus>
</clustering>
</event>
<event>
 5   1  0.3464723E-02  0.3807557E+03  0.7816531E-02  0.1050655E+00
       21   -1    0    0  502  503  0.00000000000E+00  0.00000000000E+00  0.28687942406E+03  0.28687942406E+03  0.00000000000E+00 0.  1.
        2   -1    0    0  501    0  0.00000000000E+00  0.00000000000E+00 -0.19164608233E+04  0.19164608233E+04  0.00000000000E+00 0.  1.
  1000006    1    1    2  501    0  0.13940424860E+02 -0.12860263260E+03 -0.33784848642E+03  0.50336326081E+03  0.35000000000E+03 0.  0.
 -1000006    1    1    2    0  503 -0.56752416319E+02  0.14974798519E+03  0.21859787978E+02  0.38551672617E+03  0.35000000000E+03 0.  0.
        2    1    1    2  502    0  0.42811991460E+02 -0.21145352589E+02 -0.13135927008E+04  0.13144602604E+04  0.00000000000E+00 0.  1.
<scales pt_clust_1="13000.00000" pt_clust_2="13000.00000" pt_clust_3="47.74927"></scales>
<clustering>
<clus scale="   47.749">  2  5  1 -1</clus>
<clus scale="  380.756">  2  3  1 -1</clus>
<clus scale="  380.756">  1  3  2 -1</clus>
</clustering>
</event>
<event>
 6   2  0.3464723E-02  0.3720951E+03  0.7816531E-02  0.1053895E+00
       21   -1    0    0  504  502  0.00000000000E+00  0.00000000000E+00  0.17932647348E+03  0.17932647348E+03  0.00000000000E+00 0.  1.
       21   -1    0    0  505  503  0.00000000000E+00  0.00000000000E+00 -0.10429623789E+04  0.10429623789E+04  0.00000000000E+00 0.  1.
  1000006    1    1    2  501    0  0.20039456072E+02 -0.15647663920E+03 -0.26733307119E+03  0.46781779505E+03  0.35000000000E+03 0.  0.
 -1000006    1    1    2    0  503 -0.48683440841E+02  0.95899581205E+02 -0.53628106120E+03  0.64935674609E+03  0.35000000000E+03 0.  0.
       21    1    1    2  504  501 -0.86894017169E+00  0.43880011855E+02 -0.10552831627E+02  0.45139481087E+02  0.00000000000E+00 0. -1.
       21    1    1    2  505  502  0.29512924941E+02  0.16697046141E+02 -0.49468941373E+02  0.59974830128E+02  0.00000000000E+00 0.  1.
<scales pt_clust_1="13000.00000" pt_clust_2="13000.00000" pt_clust_3="44.35051" pt_clust_4="33.90876"></scales>
<clustering>
<clus scale="   33.909">  2  6  1 -1</clus>
<clus scale="   44.351">  1  5  2 -1</clus>
<clus scale="  372.095">  1  3  2 -1</clus>
<clus scale="  372.095">  1  3  2 -1</clus>
</clustering>
</event>
<event>
 4   0  0.3464723E-02  0.3570842E+03  0.7816531E-02  0.1059744E+00
       21   -1    0    0  503  502  0.00000000000E+00  0.00000000000E+00  0.21275551082E+03  0.21275551082E+03  0.00000000000E+00 0. -1.
       21   -1    0    0  501  503  0.00000000000E+00  0.00000000000E+00 -0.64080381662E+03  0.64080381662E+03  0.00000000000E+00 0. -1.
  1000006    1    1    2  501    0 -0.68316389636E+02  0.18493820775E+02 -0.32260864043E+03  0.48123329621E+03  0.35000000000E+03 0.  0.
 -1000006    1    1    2    0  502  0.68316389636E+02 -0.18493820775E+02 -0.10543966537E+03  0.37232603123E+03  0.35000000000E+03 0.  0.
<scales pt_clust_1="13000.00000" pt_clust_2="13000.00000"></scales>
<clustering>
<clus scale="  357.084">  2  3  1 -1</clus>
<clus scale="  357.084">  1  3  2 -1</clus>
</clustering>
</event>
<event>
 4   0  0.3464723E-02  0.3915924E+03  0.7816531E-02  0.1046730E+00
       21   -1    0    0  501  502  0.00000000000E+00  0.00000000000E+00  0.94340303561E+03  0.94340303561E+03  0.00000000000E+00 0. -1.
       21   -1    0    0  502  503  0.00000000000E+00  0.00000000000E+00 -0.16398742423E+03  0.16398742423E+03  0.00000000000E+00 0. -1.
  1000006    1    1    2  501    0  0.15832700951E+03 -0.76007587120E+02  0.44165328992E+03  0.59025606625E+03  0.35000000000E+03 0.  0.
 -1000006    1    1    2    0  503 -0.15832700951E+03  0.76007587120E+02  0.33776232146E+03  0.51713439359E+03  0.35000000000E+03 0.  0.
<scales pt_clust_1="13000.00000" pt_clust_2="13000.00000"></scales>
<clustering>
<clus scale="  391.592">  1  3  2 -1</clus>
<clus scale="  391.592">  1  3  2 -1</clus>
</clustering>
</event>
<event>
 4   0  0.3464723E-02  0.3674166E+03  0.7816531E-02  0.1055685E+00
       21   -1    0    0  501  502  0.00000000000E+00  0.00000000000E+00  0.13769051867E+03  0.13769051867E+03  0.00000000000E+00 0.  1.
       21   -1    0    0  502  503  0.00000000000E+00  0.00000000000E+00 -0.10604671881E+04  0.10604671881E+04  0.00000000000E+00 0.  1.
  1000006    1    1    2  501    0  0.54693712721E+02 -0.97486153837E+02 -0.29679954410E+03  0.47231866550E+03  0.35000000000E+03 0.  0.
 -1000006    1    1    2    0  503 -0.54693712721E+02  0.97486153837E+02 -0.62597712533E+03  0.72583904127E+03  0.35000000000E+03 0.  0.
<scales pt_clust_1="13000.00000" pt_clust_2="13000.00000"></scales>
<clustering>
<clus scale="  367.417">  1  3  2 -1</clus>
<clus scale="  367.417">  1  3  2 -1</clus>
</clustering>
</event>
<event>
 5   1  0.3464723E-02  0.4888881E+03  0.7816531E-02  0.1016721E+00
       21   -1    0    0  504  502  0.00000000000E+00  0.00000000000E+00  0.63571122372E+03  0.63571122372E+03  0.00000000000E+00 0.  1.
       21   -1    0    0  501  503  0.00000000000E+00  0.00000000000E+00 -0.50251718412E+03  0.50251718412E+03  0.00000000000E+00 0.  1.
  1000006    1    1    2  501    0 -0.22035758266E+03  0.22670765043E+03  0.25438646991E+02  0.47233563042E+03  0.35000000000E+03 0.  0.
 -1000006    1    1    2    0  502  0.31484052357E+03 -0.18761696647E+03  0.18314251325E+03  0.53885606756E+03  0.35000000000E+03 0.  0.
       21    1    1    2  504  503 -0.94482940905E+02 -0.39090683963E+02 -0.75387120638E+02  0.12703670986E+03  0.00000000000E+00 0.  1.
<scales pt_clust_1="13000.00000" pt_clust_2="13000.00000" pt_clust_3="102.25022"></scales>
<clustering>
<clus scale="  102.250">  2  5  1 -1</clus>
<clus scale="  488.888">  1  4  2 -1</clus>
<clus scale="  488.888">  1  3  2 -1</clus>
</clustering>
</event>
<event>
 6   2  0.3464723E-02  0.9068043E+03  0.7816531E-02  0.9417116E-01
        1   -1    0    0  504    0  0.00000000000E+00  0.00000000000E+00  0.38353150692E+04  0.38353150692E+04  0.00000000000E+00 0.  1.
       21   -1    0    0  502  503  0.00000000000E+00  0.00000000000E+00 -0.67337268749E+03  0.67337268749E+03  0.00000000000E+00 0.  1.
  1000006    1    1    2  501    0  0.25831299721E+03  0.15053696539E+03 -0.16096550268E+03  0.48764420998E+03  0.35000000000E+03 0.  0.
 -1000006    1    1    2    0  503  0.24509689326E+02  0.27883533055E+03 -0.16573667560E+03  0.47782686412E+03  0.35000000000E+03 0.  0.
       21    1    1    2  504  501  0.32561258697E+02 -0.63954744918E+02  0.11745176347E+03  0.13764215091E+03  0.00000000000E+00 0. -1.
        1    1    1    2  502    0 -0.31538394523E+03 -0.36541755102E+03  0.33711927965E+04  0.34055745317E+04  0.00000000000E+00 0.  1.
<scales pt_clust_1="13000.00000" pt_clust_2="13000.00000" pt_clust_3="71.76660" pt_clust_4="511.11950"></scales>
<clustering>
<clus scale="   71.767">  1  5  2 -1</clus>
<clus scale="  434.060">  3  4 -1 -1</clus>
<clus scale="  511.120">  1  6  2 -1</clus>
<clus scale="  906.804">  2  3  1 -1</clus>
</clustering>
</event>
<event>
 6   2  0.3464723E-02  0.3533151E+03  0.7816531E-02  0.1061263E+00
       21   -1    0    0  501  502  0.00000000000E+00  0.00000000000E+00  0.33560700444E+03  0.33560700444E+03  0.00000000000E+00 0.  1.
       21   -1    0    0  504  503  0.00000000000E+00  0.00000000000E+00 -0.67767367870E+03  0.67767367870E+03  0.00000000000E+00 0.  1.
  1000006    1    1    2  501    0  0.54727170261E+02 -0.54695421382E+02 -0.76632881204E+02  0.36655047506E+03  0.35000000000E+03 0.  0.
 -1000006    1    1    2    0  503  0.17449811990E+01  0.35017082927E+02 -0.29163513494E+03  0.45692482203E+03  0.35000000000E+03 0.  0.
       21    1    1    2  504  505 -0.36551593686E+02 -0.13138489763E+02 -0.73410133100E+02  0.83052312165E+02  0.00000000000E+00 0. -1.
       21    1    1    2  505  502 -0.19920557774E+02  0.32816828218E+02  0.99611474978E+02  0.10675307388E+03  0.00000000000E+00 0.  1.
<scales pt_clust_1="13000.00000" pt_clust_2="13000.00000" pt_clust_3="39.00760" pt_clust_4="38.38975"></scales>
<clustering>
<clus scale="   38.390">  1  6  2 -1</clus>
<clus scale="   39.008">  2  5  1 -1</clus>
<clus scale="  353.315">  1  3  2 -1</clus>
<clus scale="  353.315">  1  3  2 -1</clus>
</clustering>
</event>
<event>
 5   1  0.3464723E-02  0.3583635E+03  0.7816531E-02  0.1059234E+00
       21   -1    0    0  502  503  0.00000000000E+00  0.00000000000E+00  0.23530697466E+04  0.23530697466E+04  0.00000000000E+00 0. -1.
        1   -1    0    0  501    0  0.00000000000E+00  0.00000000000E+00 -0.10991001565E+03  0.10991001565E+03  0.00000000000E+00 0. -1.
  1000006    1    1    2  501    0  0.16801531960E+03 -0.50320132324E+02  0.79233461356E+03  0.88377338904E+03  0.35000000000E+03 0.  0.
 -1000006    1    1    2    0  503  0.18730190046E+02 -0.11803007195E+03  0.93097204076E+03  0.10017439087E+04  0.35000000000E+03 0.  0.
        1    1    1    2  502    0 -0.18674550965E+03  0.16835020427E+03  0.51985307667E+03  0.57746246456E+03  0.00000000000E+00 0. -1.
<scales pt_clust_1="13000.00000" pt_clust_2="13000.00000" pt_clust_3="251.42728"></scales>
<clustering>
<clus scale="  251.427">  2  5  1 -1</clus>
<clus scale="  358.364">  1  4  2 -1</clus>
<clus scale="  358.364">  1  3  2 -1</clus>
</clustering>
</event>
<event>
 4   0  0.3464723E-02  0.4163741E+03  0.7816531E-02  0.1038253E+00
       21   -1    0    0  501  502  0.00000000000E+00  0.00000000000E+00  0.54575852924E+03  0.54575852924E+03  0.00000000000E+00 0. -1.
       21   -1    0    0  502  503  0.00000000000E+00  0.00000000000E+00 -0.35539505240E+03  0.35539505240E+03  0.00000000000E+00 0. -1.
  1000006    1    1    2  501    0  0.17202524304E+03  0.14585844110E+03  0.24199575720E+03  0.48159040230E+03  0.35000000000E+03 0.  0.
 -1000006    1    1    2    0  503 -0.17202524304E+03 -0.14585844110E+03 -0.51632280363E+02  0.41956317934E+03  0.35000000000E+03 0.  0.
<scales pt_clust_1="13000.00000" pt_clust_2="13000.00000"></scales>
<clustering>
<clus scale="  416.374">  1  3  2 -1</clus>
<clus scale="  416.374">  1  3  2 -1</clus>
</clustering>
</event>
<event>
 5   1  0.3464723E-02  0.5473120E+03  0.7816531E-02  0.1002118E+00
        2   -1    0    0  501    0  0.00000000000E+00  0.00000000000E+00  0.26848819036E+04  0.26848819036E+04  0.00000000000E+00 0. -1.
       21   -1    0    0  502  503  0.00000000000E+00  0.00000000000E+00 -0.20668398338E+03  0.20668398338E+03  0.00000000000E+00 0. -1.
  1000006    1    1    2  501    0 -0.30464010808E+03 -0.25875693998E+03  0.19345190941E+04  0.20061467730E+04  0.35000000000E+03 0.  0.
 -1000006    1    1    2    0  503  0.36636701509E+03  0.21882574260E+03  0.29439769918E+03  0.62552338138E+03  0.35000000000E+03 0.  0.
        2    1    1    2  502    0 -0.61726907001E+02  0.39931197380E+02  0.24928112698E+03  0.25989573264E+03  0.00000000000E+00 0. -1.
<scales pt_clust_1="13000.00000" pt_clust_2="13000.00000" pt_clust_3="73.51674"></scales>
<clustering>
<clus scale="   73.517">  1  5  2 -1</clus>
<clus scale="  547.312">  1  3  2 -1</clus>
<clus scale="  547.312">  2  3  1 -1</clus>
</clustering>
</event>
<event>
 4   0  0.3464723E-02  0.3651707E+03  0.7816531E-02  0.1056555E+00
       21   -1    0    0  503  502  0.00000000000E+00  0.00000000000E+00  0.88082543617E+03  0.88082543617E+03  0.00000000000E+00 0. -1.
       21   -1    0    0  501  503  0.00000000000E+00  0.00000000000E+00 -0.23530145827E+03  0.23530145827E+03  0.00000000000E+00 0. -1.
  1000006    1    1    2  501    0  0.90474578188E+02 -0.51613852534E+02 -0.10493694780E+02  0.36532144298E+03  0.35000000000E+03 0.  0.
 -1000006    1    1    2    0  502 -0.90474578188E+02  0.51613852534E+02  0.65601767268E+03  0.75080545146E+03  0.35000000000E+03 0.  0.
<scales pt_clust_1="13000.00000" pt_clust_2="13000.00000"></scales>
<clustering>
<clus scale="  365.171">  2  3  1 -1</clus>
<clus scale="  365.171">  1  3  2 -1</clus>
</clustering>
</event>
<event>
 5   1  0.3464723E-02  0.3748135E+03  0.7816531E-02  0.1052868E+00
       21   -1    0    0  504  502  0.00000000000E+00  0.00000000000E+00  0.24952272362E+03  0.24952272362E+03  0.00000000000E+00 0.  1.
       21   -1    0    0  501  503  0.00000000000E+00  0.00000000000E+00 -0.19791261816E+04  0.19791261816E+04  0.00000000000E+00 0.  1.
  1000006    1    1    2  501    0  0.68955756567E+02 -0.15066124414E+03 -0.12662354845E+04  0.13241246199E+04  0.35000000000E+03 0.  0.
 -1000006    1    1    2    0  502 -0.13334197364E+03 -0.47565783592E+00 -0.58880278619E+03  0.69783166252E+03  0.35000000000E+03 0.  0.
       21    1    1    2  504  503  0.64386217074E+02  0.15113690197E+03  0.12543481270E+03  0.20669262281E+03  0.00000000000E+00 0.  1.
<scales pt_clust_1="13000.00000" pt_clust_2="13000.00000" pt_clust_3="164.28009"></scales>
<clustering>
<clus scale="  164.280">  1  5  2 -1</clus>
<clus scale="  374.814">  2  3  1 -1</clus>
<clus scale="  374.814">  1  3  2 -1</clus>
</clustering>
</event>
<event>
 6   2  0.3464723E-02  0.3597435E+03  0.7816531E-02  0.1058685E+00
       21   -1    0    0  505  502  0.00000000000E+00  0.00000000000E+00  0.10468604643E+04  0.10468604643E+04  0.00000000000E+00 0. -1.
       21   -1    0    0  501  503  0.00000000000E+00  0.00000000000E+00 -0.76690627422E+03  0.76690627422E+03  0.00000000000E+00 0. -1.
  1000006    1    1    2  501    0 -0.98654435665E+02  0.43188292955E+02 -0.56272685882E+03  0.67138621074E+03  0.35000000000E+03 0.  0.
 -1000006    1    1    2    0  504 -0.44509113887E+02 -0.23850535164E+02  0.12419125176E+03  0.37479778049E+03  0.35000000000E+03 0.  0.
       21    1    1    2  504  502  0.83255471098E+02 -0.32925850312E+02  0.69666035363E+03  0.70238965924E+03  0.00000000000E+00 0. -1.
       21    1    1    2  505  503  0.59908078454E+02  0.13588092521E+02  0.21829443474E+02  0.65193088014E+02  0.00000000000E+00 0. -1.
<scales pt_clust_1="13000.00000" pt_clust_2="13000.00000" pt_clust_3="127.20342" pt_clust_4="61.42975"></scales>
<clustering>
<clus scale="   61.430">  1  6  2 -1</clus>
<clus scale="  127.203">  1  5  2 -1</clus>
<clus scale="  359.744">  1  4  2 -1</clus>
<clus scale="  359.744">  1  3  2 -1</clus>
</clustering>
</event>
<event>
 5   1  0.3464723E-02  0.5020199E+03  0.7816531E-02  0.1013253E+00
       21   -1    0    0  501  502  0.00000000000E+00  0.00000000000E+00  0.32220035039E+04  0.32220035039E+04  0.00000000000E+00 0.  1.
       21   -1    0    0  504  503  0.00000000000E+00  0.00000000000E+00 -0.16420395300E+03  0.16420395300E+03  0.00000000000E+00 0.  1.
  1000006    1    1    2  501    0 -0.37011351649E+03 -0.41355906923E+02  0.23273519505E+04  0.23828053692E+04  0.35000000000E+03 0.  0.
 -1000006    1    1    2    0  503  0.32346879122E+03 -0.14315843037E+03  0.52766632283E+03  0.72529865802E+03  0.35000000000E+03 0.  0.
       21    1    1    2  504  502  0.46644725269E+02  0.18451433729E+03  0.20278127762E+03  0.27810342971E+03  0.00000000000E+00 0.  1.
<scales pt_clust_1="13000.00000" pt_clust_2="13000.00000" pt_clust_3="190.31887"></scales>
<clustering>
<clus scale="  190.319">  2  5  1 -1</clus>
<clus scale="  502.020">  2  4  1 -1</clus>
<clus scale="  502.020">  1  3  2 -1</clus>
</clustering>
</event>
<event>
 6   2  0.3464723E-02  0.3682220E+03  0.7816531E-02  0.1055375E+00
       21   -1    0    0  504  503  0.00000000000E+00  0.00000000000E+00  0.90066426937E+03  0.90066426937E+03  0.00000000000E+00 0.  1.
        2   -1    0    0  503    0  0.00000000000E+00  0.00000000000E+00 -0.52029647221E+03  0.52029647221E+03  0.00000000000E+00 0.  1.
  1000006    1    1    2  501    0  0.15190661691E+03  0.76800771751E+02  0.24438529681E+03  0.45956300123E+03  0.35000000000E+03 0.  0.
 -1000006    1    1    2    0  502 -0.29309222956E+01 -0.96512839678E+02  0.87405539259E+02  0.37344751548E+03  0.35000000000E+03 0.  0.
       21    1    1    2  504  501 -0.63040988175E+02 -0.92418037366E+01  0.30727917346E+03  0.31381533992E+03  0.00000000000E+00 0. -1.
        2    1    1    2  502    0 -0.85934706436E+02  0.28953871664E+02 -0.25870221237E+03  0.27413488494E+03  0.00000000000E+00 0.  1.
<scales pt_clust_1="13000.00000" pt_clust_2="13000.00000" pt_clust_3="63.71481" pt_clust_4="91.42468"></scales>
<clustering>
<clus scale="   63.715">  1  5  2 -1</clus>
<clus scale="   91.425">  2  6  1 -1</clus>
<clus scale="  368.222">  2  4  1 -1</clus>
<clus scale="  368.222">  1  3  2 -1</clus>
</clustering>
</event>
<event>
 5   1  0.3464723E-02  0.4300093E+03  0.7816531E-02  0.1033857E+00
       21   -1    0    0  501  503  0.00000000000E+00  0.00000000000E+00  0.26422022332E+03  0.26422022332E+03  0.00000000000E+00 0. -1.
        2   -1    0    0  503    0  0.00000000000E+00  0.00000000000E+00 -0.11395657210E+04  0.11395657210E+04  0.00000000000E+00 0. -1.
  1000006    1    1    2  501    0  0.17000153650E+03 -0.18025740393E+03 -0.96247663002E+02  0.43949615097E+03  0.35000000000E+03 0.  0.
 -1000006    1    1    2    0  502 -0.10607200823E+03  0.24209478946E+03 -0.47088976382E+03  0.64350472235E+03  0.35000000000E+03 0.  0.
        2    1    1    2  502    0 -0.63929528276E+02 -0.61837385535E+02 -0.30820807089E+03  0.32078507103E+03  0.00000000000E+00 0. -1.
<scales pt_clust_1="13000.00000" pt_clust_2="13000.00000" pt_clust_3="88.94294"></scales>
<clustering>
<clus scale="   88.943">  2  5  1 -1</clus>
<clus scale="  430.009">  1  3  2 -1</clus>
<clus scale="  430.009">  1  3  2 -1</clus>
</clustering>
</event>
<event>
 5   1  0.3464723E-02  0.3634936E+03  0.7816531E-02  0.1057209E+00
       21   -1    0    0  503  502  0.00000000000E+00  0.00000000000E+00  0.35821951616E+04  0.35821951616E+04  0.00000000000E+00 0. -1.
       21   -1    0    0  504  503  0.00000000000E+00  0.00000000000E+00 -0.10901656642E+03  0.10901656642E+03  0.00000000000E+00 0. -1.
  1000006    1    1    2  501    0 -0.15378970079E+03  0.15742366477E+03  0.12297473760E+04  0.12973866390E+04  0.35000000000E+03 0.  0.
 -1000006    1    1    2    0  502  0.69406589888E+02  0.37420866878E+02  0.21159771464E+04  0.21461772713E+04  0.35000000000E+03 0.  0.
       21    1    1    2  504  501  0.84383110905E+02 -0.19484453164E+03  0.12745407278E+03  0.24764781765E+03  0.00000000000E+00 0. -1.
<scales pt_clust_1="13000.00000" pt_clust_2="13000.00000" pt_clust_3="212.33205"></scales>
<clustering>
<clus scale="  212.332">  2  5  1 -1</clus>
<clus scale="  363.494">  2  3  1 -1</clus>
<clus scale="  363.494">  1  3  2 -1</clus>
</clustering>
</event>
<event>
 4   0  0.3464723E-02  0.3641262E+03  0.7816531E-02  0.1056962E+00
       21   -1    0    0  501  502  0.00000000000E+00  0.00000000000E+00  0.23165328027E+03  0.23165328027E+03  0.00000000000E+00 0. -1.
       21   -1    0    0  502  503  0.00000000000E+00  0.00000000000E+00 -0.76834646537E+03  0.76834646537E+03  0.00000000000E+00 0. -1.
  1000006    1    1    2  501    0 -0.34861615265E+02 -0.94194438150E+02 -0.15818399246E+02  0.36446967796E+03  0.35000000000E+03 0.  0.
 -1000006    1    1    2    0  503  0.34861615265E+02  0.94194438150E+02 -0.52087478585E+03  0.63553006769E+03  0.35000000000E+03 0.  0.
<scales pt_clust_1="13000.00000" pt_clust_2="13000.00000"></scales>
<clustering>
<clus scale="  364.126">  1  3  2 -1</clus>
<clus scale="  364.126">  1  3  2 -1</clus>
</clustering>
</event>
<event>
 4   0  0.3464723E-02  0.3602850E+03  0.7816531E-02  0.1058471E+00
       21   -1    0    0  501  502  0.00000000000E+00  0.00000000000E+00  0.14100258150E+03  0.14100258150E+03  0.00000000000E+00 0.  1.
       21   -1    0    0  502  503  0.00000000000E+00  0.00000000000E+00 -0.12190885486E+04  0.12190885486E+04  0.00000000000E+00 0.  1.
  1000006    1    1    2  501    0  0.29538994682E+02 -0.80204151943E+02 -0.20253676885E+03  0.41331150593E+03  0.35000000000E+03 0.  0.
 -1000006    1    1    2    0  503 -0.29538994682E+02  0.80204151943E+02 -0.87554919828E+03  0.94677962420E+03  0.35000000000E+03 0.  0.
<scales pt_clust_1="13000.00000" pt_clust_2="13000.00000"></scales>
<clustering>
<clus scale="  360.285">  1  3  2 -1</clus>
<clus scale="  360.285">  1  3  2 -1</clus>
</clustering>
</event>
<event>
 6   2  0.3464723E-02  0.3968075E+03  0.7816531E-02  0.1044891E+00
       21   -1    0    0  505  502  0.00000000000E+00  0.00000000000E+00  0.15548289446E+04  0.15548289446E+04  0.00000000000E+00 0.  1.
       21   -1    0    0  504  503  0.00000000000E+00  0.00000000000E+00 -0.23086924673E+03  0.23086924673E+03  0.00000000000E+00 0.  1.
  1000006    1    1    2  501    0 -0.12528506165E+03 -0.11233932806E+03  0.60215416260E+03  0.71652362616E+03  0.35000000000E+03 0.  0.
 -1000006    1    1    2    0  503  0.17899185535E+03  0.79844117502E+02  0.70920076323E+02  0.40736080397E+03  0.35000000000E+03 0.  0.
       21    1    1    2  504  502 -0.14390324335E+02 -0.27437251400E+02  0.39098113082E+03  0.39220674249E+03  0.00000000000E+00 0.  1.
       21    1    1    2  505  501 -0.39316469366E+02  0.59932461962E+02  0.25990432818E+03  0.26960701876E+03  0.00000000000E+00 0. -1.
<scales pt_clust_1="13000.00000" pt_clust_2="13000.00000" pt_clust_3="30.98200" pt_clust_4="68.53045"></scales>
<clustering>
<clus scale="   30.982">  1  5  2 -1</clus>
<clus scale="   68.530">  1  6  2 -1</clus>
<clus scale="  396.807">  1  3  2 -1</clus>
<clus scale="  396.807">  1  3  2 -1</clus>
</clustering>
</event>
<event>
 5   1  0.3464723E-02  0.3887761E+03  0.7816531E-02  0.1047737E+00
       21   -1    0    0  504  502  0.00000000000E+00  0.00000000000E+00  0.17084328243E+04  0.17084328243E+04  0.00000000000E+00 0. -1.
       21   -1    0    0  502  503  0.00000000000E+00  0.00000000000E+00 -0.31858725549E+03  0.31858725549E+03  0.00000000000E+00 0. -1.
  1000006    1    1    2  501    0  0.14891829590E+03  0.43381784959E+02  0.19764839219E+03  0.43084048679E+03  0.35000000000E+03 0.  0.
 -1000006    1    1    2    0  503 -0.17206107897E+03  0.10481942515E+03  0.94482099893E+01  0.40395717032E+03  0.35000000000E+03 0.  0.
       21    1    1    2  504  501  0.23142783064E+02 -0.14820121011E+03  0.11827489666E+04  0.11922224226E+04  0.00000000000E+00 0. -1.
<scales pt_clust_1="13000.00000" pt_clust_2="13000.00000" pt_clust_3="149.99729"></scales>
<clustering>
<clus scale="  149.997">  1  5  2 -1</clus>
<clus scale="  388.776">  1  3  2 -1</clus>
<clus scale="  388.776">  1  3  2 -1</clus>
</clustering>
</event>
<event>
 5   1  0.3464723E-02  0.3519665E+03  0.7816531E-02  0.1061811E+00
       21   -1    0    0  504  502  0.00000000000E+00  0.00000000000E+00  0.61156948566E+03  0.61156948566E+03  0.00000000000E+00 0.  1.
       21   -1    0    0  502  503  0.00000000000E+00  0.00000000000E+00 -0.82570521546E+03  0.82570521546E+03  0.00000000000E+00 0.  1.
  1000006    1    1    2  501    0  0.53870271716E+02 -0.39992714730E+02 -0.17118790130E+02  0.35678351473E+03  0.35000000000E+03 0.  0.
 -1000006    1    1    2    0  503  0.46452184333E+02 -0.49394652992E+02 -0.57655269836E+03  0.67787214957E+03  0.35000000000E+03 0.  0.
       21    1    1    2  504  501 -0.10032245605E+03  0.89387367722E+02  0.37953575868E+03  0.40261903682E+03  0.00000000000E+00 0.  1.
<scales pt_clust_1="13000.00000" pt_clust_2="13000.00000" pt_clust_3="134.36777"></scales>
<clustering>
<clus scale="  134.368">  1  5  2 -1</clus>
<clus scale="  351.966">  2  4  1 -1</clus>
<clus scale="  351.966">  1  3  2 -1</clus>
</clustering>
</event>
<event>
 6   2  0.3464723E-02  0.3752661E+03  0.7816531E-02  0.1052697E+00
       21   -1    0    0  504  502  0.00000000000E+00  0.00000000000E+00  0.13713948386E+04  0.13713948386E+04  0.00000000000E+00 0.  1.
       21   -1    0    0  505  503  0.00000000000E+00  0.00000000000E+00 -0.69667174348E+03  0.69667174348E+03  0.00000000000E+00 0.  1.
  1000006    1    1    2  501    0  0.38057033007E+02  0.90632432207E+02  0.26037664609E+03  0.44716727671E+03  0.35000000000E+03 0.  0.
 -1000006    1    1    2    0  503 -0.77739018949E+02 -0.11863116860E+03 -0.54136689915E+03  0.66007183604E+03  0.35000000000E+03 0.  0.
       21    1    1    2  504  501  0.62610596837E+02  0.10035988906E+01  0.67220846569E+03  0.67511874170E+03  0.00000000000E+00 0.  1.
       21    1    1    2  505  502 -0.22928610896E+02  0.26995137501E+02  0.28350488250E+03  0.28570872764E+03  0.00000000000E+00 0. -1.
<scales pt_clust_1="13000.00000" pt_clust_2="13000.00000" pt_clust_3="51.54570" pt_clust_4="35.41834"></scales>
<clustering>
<clus scale="   35.418">  1  6  2 -1</clus>
<clus scale="   51.546">  1  5  2 -1</clus>
<clus scale="  375.266">  1  3  2 -1</clus>
<clus scale="  375.266">  1  3  2 -1</clus>
</clustering>
</event>
<event>
 6   2  0.3464723E-02  0.7378383E+03  0.7816531E-02  0.9654626E-01
       21   -1    0    0  504  502  0.00000000000E+00  0.00000000000E+00  0.31415981223E+03  0.31415981223E+03  0.00000000000E+00 0.  1.
       21   -1    0    0  501  503  0.00000000000E+00  0.00000000000E+00 -0.29982902121E+04  0.29982902121E+04  0.00000000000E+00 0. -1.
  1000006    1    1    2  501    0 -0.35945836008E+03  0.56964560464E+03 -0.19288721078E+04  0.20728613161E+04  0.35000000000E+03 0.  0.
 -1000006    1    1    2    0  502  0.32168500380E+03 -0.43737475663E+03 -0.56406070338E+03  0.85757938204E+03  0.35000000000E+03 0.  0.
       21    1    1    2  504  505  0.54921270342E+02 -0.21577117036E+03 -0.69153436080E+02  0.23314317836E+03  0.00000000000E+00 0.  1.
       21    1    1    2  505  503 -0.17147914065E+02  0.83500322343E+02 -0.12204415266E+03  0.14886614789E+03  0.00000000000E+00 0. -1.
<scales pt_clust_1="13000.00000" pt_clust_2="13000.00000" pt_clust_3="218.15563" pt_clust_4="85.24292"></scales>
<clustering>
<clus scale="   85.243">  2  6  1 -1</clus>
<clus scale="  218.156">  1  5  2 -1</clus>
<clus scale="  737.838">  2  3  1 -1</clus>
<clus scale="  737.838">  1  3  2 -1</clus>
</clustering>
</event>
<event>
 4   0  0.3464723E-02  0.7194759E+03  0.7816531E-02  0.9684494E-01
       -1   -1    0    0    0  501  0.00000000000E+00  0.00000000000E+00  0.43482125389E+03  0.43482125389E+03  0.00000000000E+00 0.  1.
        1   -1    0    0  502    0  0.00000000000E+00  0.00000000000E+00 -0.12348536291E+04  0.12348536291E+04  0.00000000000E+00 0. -1.
  1000006    1    1    2  502    0 -0.61158163470E+03  0.14530470696E+03 -0.24175961899E+03  0.75900808108E+03  0.35000000000E+03 0.  0.
 -1000006    1    1    2    0  501  0.61158163470E+03 -0.14530470696E+03 -0.55827275621E+03  0.91066680191E+03  0.35000000000E+03 0.  0.
<scales pt_clust_1="13000.00000" pt_clust_2="13000.00000"></scales>
<clustering>
<clus scale=" 1334.265">  3  4 -1 -1</clus>
<clus scale="  719.476">  2  3  1 -1</clus>
</clustering>
</event>
<event>
 6   2  0.3464723E-02  0.3712116E+03  0.7816531E-02  0.1054231E+00
       21   -1    0    0  504  502  0.00000000000E+00  0.00000000000E+00  0.12439702979E+04  0.12439702979E+04  0.00000000000E+00 0.  1.
       21   -1    0    0  501  503  0.00000000000E+00  0.00000000000E+00 -0.16032181990E+04  0.16032181990E+04  0.00000000000E+00 0.  1.
  1000006    1    1    2  501    0 -0.14376934534E+03 -0.23763254043E+02 -0.10936654603E+04  0.11575139118E+04  0.35000000000E+03 0.  0.
 -1000006    1    1    2    0  505  0.76245989167E+02 -0.83563947878E+02 -0.38440478462E+03  0.53203705011E+03  0.35000000000E+03 0.  0.
       21    1    1    2  504  503  0.14058029290E+03  0.15491410323E+03  0.82882453242E+03  0.85481653217E+03  0.00000000000E+00 0.  1.
       21    1    1    2  505  502 -0.73056936726E+02 -0.47586901308E+02  0.28999781136E+03  0.30282100286E+03  0.00000000000E+00 0.  1.
<scales pt_clust_1="13000.00000" pt_clust_2="13000.00000" pt_clust_3="135.69841" pt_clust_4="87.18847"></scales>
<clustering>
<clus scale="   87.188">  1  6  2 -1</clus>
<clus scale="  135.698">  1  5  2 -1</clus>
<clus scale="  371.212">  1  4  2 -1</clus>
<clus scale="  371.212">  1  3  2 -1</clus>
</clustering>
</event>
<event>
 4   0  0.3464723E-02  0.3618304E+03  0.7816531E-02  0.1057861E+00
       21   -1    0    0  503  502  0.00000000000E+00  0.00000000000E+00  0.64355132435E+03  0.64355132435E+03  0.00000000000E+00 0.  1.
       21   -1    0    0  501  503  0.00000000000E+00  0.00000000000E+00 -0.42685723574E+03  0.42685723574E+03  0.00000000000E+00 0.  1.
  1000006    1    1    2  501    0 -0.90399529680E+02 -0.15785656034E+02 -0.27885785990E+03  0.45681830954E+03  0.35000000000E+03 0.  0.
 -1000006    1    1    2    0  502  0.90399529680E+02  0.15785656034E+02  0.49555194851E+03  0.61359025056E+03  0.35000000000E+03 0.  0.
<scales pt_clust_1="13000.00000" pt_clust_2="13000.00000"></scales>
<clustering>
<clus scale="  361.830">  2  3  1 -1</clus>
<clus scale="  361.830">  1  3  2 -1</clus>
</clustering>
</event>
<event>
 4   0  0.3464723E-02  0.3736305E+03  0.7816531E-02  0.1053313E+00
       21   -1    0    0  501  502  0.00000000000E+00  0.00000000000E+00  0.36385798999E+03  0.36385798999E+03  0.00000000000E+00 0. -1.
       21   -1    0    0  502  503  0.00000000000E+00  0.00000000000E+00 -0.38581318968E+03  0.38581318968E+03  0.00000000000E+00 0. -1.
  1000006    1    1    2  501    0 -0.12496576833E+03 -0.38513878785E+02  0.16988816014E+02  0.37401655309E+03  0.35000000000E+03 0.  0.
 -1000006    1    1    2    0  503  0.12496576833E+03  0.38513878785E+02 -0.38944015701E+02  0.37565462658E+03  0.35000000000E+03 0.  0.
<scales pt_clust_1="13000.00000" pt_clust_2="13000.00000"></scales>
<clustering>
<clus scale="  373.631">  1  3  2 -1</clus>
<clus scale="  373.631">  1  3  2 -1</clus>
</clustering>
</event>
<event>
 6   2  0.3464723E-02  0.3783845E+03  0.7816531E-02  0.1051532E+00
        2   -1    0    0  504    0  0.00000000000E+00  0.00000000000E+00  0.40344972785E+04  0.40344972785E+04  0.00000000000E+00 0.  1.
       21   -1    0    0  501  503  0.00000000000E+00  0.00000000000E+00 -0.73767174436E+02  0.73767174436E+02  0.00000000000E+00 0.  1.
  1000006    1    1    2  501    0 -0.78128670725E+02  0.95164362796E+02  0.69296590623E+03  0.78604204234E+03  0.35000000000E+03 0.  0.
 -1000006    1    1    2    0  502  0.13951238098E+03 -0.10776727190E+03  0.25956328269E+04  0.26250499541E+04  0.35000000000E+03 0.  0.
       21    1    1    2  504  503  0.21023106920E+02  0.39844787489E+02  0.43658199427E+02  0.62734492042E+02  0.00000000000E+00 0. -1.
        2    1    1    2  502    0 -0.82406817173E+02 -0.27241878384E+02  0.62847317153E+03  0.63443796449E+03  0.00000000000E+00 0.  1.
<scales pt_clust_1="13000.00000" pt_clust_2="13000.00000" pt_clust_3="45.05084" pt_clust_4="85.29765"></scales>
<clustering>
<clus scale="   45.051">  2  5  1 -1</clus>
<clus scale="   85.298">  1  6  2 -1</clus>
<clus scale="  378.385">  2  3  1 -1</clus>
<clus scale="  378.385">  2  3  1 -1</clus>
</clustering>
</event>
<event>
 6   2  0.3464723E-02  0.4148728E+03  0.7816531E-02  0.1038748E+00
       21   -1    0    0  504  502  0.00000000000E+00  0.00000000000E+00  0.73666950107E+03  0.73666950107E+03  0.00000000000E+00 0. -1.
       21   -1    0    0  505  503  0.00000000000E+00  0.00000000000E+00 -0.51835362224E+03  0.51835362224E+03  0.00000000000E+00 0. -1.
  1000006    1    1    2  501    0 -0.37853005329E+03 -0.70014654348E+02  0.11458584622E+02  0.52040210629E+03  0.35000000000E+03 0.  0.
 -1000006    1    1    2    0  503  0.63890456432E+02  0.14512261475E+02  0.13495044831E+03  0.38079419593E+03  0.35000000000E+03 0.  0.
       21    1    1    2  504  501  0.98603784943E+01  0.40014885450E+02  0.10675011245E+02  0.42571985938E+02  0.00000000000E+00 0.  1.
       21    1    1    2  505  502  0.30477921836E+03  0.15487507423E+02  0.61231834657E+02  0.31125483516E+03  0.00000000000E+00 0. -1.
<scales pt_clust_1="13000.00000" pt_clust_2="13000.00000" pt_clust_3="41.21187" pt_clust_4="308.46187"></scales>
<clustering>
<clus scale="   41.212">  1  5  2 -1</clus>
<clus scale="  308.462">  1  6  2 -1</clus>
<clus scale="  414.873">  2  4  1 -1</clus>
<clus scale="  414.873">  1  3  2 -1</clus>
</clustering>
</event>
<event>
 6   2  0.3464723E-02  0.8166873E+03  0.7816531E-02  0.9536172E-01
       21   -1    0    0  501  503  0.00000000000E+00  0.00000000000E+00  0.80006716554E+03  0.80006716554E+03  0.00000000000E+00 0. -1.
        2   -1    0    0  503    0  0.00000000000E+00  0.00000000000E+00 -0.17169830641E+04  0.17169830641E+04  0.00000000000E+00 0.  1.
  1000006    1    1    2  501    0 -0.69857537079E+03 -0.76932264391E+02  0.29835294369E+03  0.83990511428E+03  0.35000000000E+03 0.  0.
 -1000006    1    1    2    0  504  0.88424156187E+03  0.60055232817E+02 -0.94146764997E+03  0.13395339140E+04  0.35000000000E+03 0.  0.
       21    1    1    2  504  502 -0.56185835634E+02 -0.18456553608E+02 -0.54065926402E+02  0.80128751984E+02  0.00000000000E+00 0.  1.
        2    1    1    2  502    0 -0.12948035544E+03  0.35333585181E+02 -0.21973526592E+03  0.25748244945E+03  0.00000000000E+00 0.  1.
<scales pt_clust_1="13000.00000" pt_clust_2="13000.00000" pt_clust_3="43.31260" pt_clust_4="197.52020"></scales>
<clustering>
<clus scale="   43.313">  5  6 -1 -1</clus>
<clus scale="  197.520">  2  5  1 -1</clus>
<clus scale="  816.687">  1  3  2 -1</clus>
<clus scale="  816.687">  1  3  2 -1</clus>
</clustering>
</event>
<event>
 4   0  0.3464723E-02  0.3729056E+03  0.7816531E-02  0.1053587E+00
       21   -1    0    0  501  502  0.00000000000E+00  0.00000000000E+00  0.12009843726E+04  0.12009843726E+04  0.00000000000E+00 0.  1.
       21   -1    0    0  502  503  0.00000000000E+00  0.00000000000E+00 -0.16410897409E+03  0.16410897409E+03  0.00000000000E+00 0.  1.
  1000006    1    1    2  501    0  0.10694852865E+03 -0.71558310754E+02  0.88880937540E+03  0.96386756633E+03  0.35000000000E+03 0.  0.
 -1000006    1    1    2    0  503 -0.10694852865E+03  0.71558310754E+02  0.14806602309E+03  0.40122578034E+03  0.35000000000E+03 0.  0.
<scales pt_clust_1="13000.00000" pt_clust_2="13000.00000"></scales>
<clustering>
<clus scale="  372.906">  1  3  2 -1</clus>
<clus scale="  372.906">  1  3  2 -1</clus>
</clustering>
</event>
<event>
 5   1  0.3464723E-02  0.4092052E+03  0.7816531E-02  0.1040638E+00
       21   -1    0    0  504  502  0.00000000000E+00  0.00000000000E+00  0.18959072106E+03  0.18959072106E+03  0.00000000000E+00 0.  1.
       21   -1    0    0  501  503  0.00000000000E+00  0.00000000000E+00 -0.13015226444E+04  0.13015226444E+04  0.00000000000E+00 0.  1.
  1000006    1    1    2  501    0  0.23114804765E+02 -0.21703761229E+03 -0.79320989483E+03  0.89404784917E+03  0.35000000000E+03 0.  0.
 -1000006    1    1    2    0  502 -0.10388929576E+03  0.18760773826E+03 -0.21844436423E+03  0.46498127865E+03  0.35000000000E+03 0.  0.
       21    1    1    2  504  503  0.80774490993E+02  0.29429874028E+02 -0.10027766424E+03  0.13208423762E+03  0.00000000000E+00 0. -1.
<scales pt_clust_1="13000.00000" pt_clust_2="13000.00000" pt_clust_3="85.96881"></scales>
<clustering>
<clus scale="   85.969">  2  5  1 -1</clus>
<clus scale="  409.205">  2  3  1 -1</clus>
<clus scale="  409.205">  1  3  2 -1</clus>
</clustering>
</event>
<event>
 5   1  0.3464723E-02  0.4465866E+03  0.7816531E-02  0.1028745E+00
       21   -1    0    0  504  502  0.00000000000E+00  0.00000000000E+00  0.13456569844E+04  0.13456569844E+04  0.00000000000E+00 0. -1.
       21   -1    0    0  501  503  0.00000000000E+00  0.00000000000E+00 -0.22712698243E+03  0.22712698243E+03  0.00000000000E+00 0. -1.
  1000006    1    1    2  501    0  0.26855318668E+03  0.32517833815E+02  0.19379687416E+03  0.48294456413E+03  0.35000000000E+03 0.  0.
 -1000006    1    1    2    0  502 -0.27170338708E+03 -0.14183802279E+03  0.70976037147E+03  0.84864629862E+03  0.35000000000E+03 0.  0.
       21    1    1    2  504  503  0.31502004023E+01  0.10932018898E+03  0.21497275632E+03  0.24119310405E+03  0.00000000000E+00 0. -1.
<scales pt_clust_1="13000.00000" pt_clust_2="13000.00000" pt_clust_3="109.36557"></scales>
<clustering>
<clus scale="  109.366">  1  5  2 -1</clus>
<clus scale="  446.587">  1  4  2 -1</clus>
<clus scale="  446.587">  1  3  2 -1</clus>
</clustering>
</event>
<event>
 6   2  0.3464723E-02  0.1061539E+04  0.7816531E-02  0.9243511E-01
       21   -1    0    0  502  503  0.00000000000E+00  0.00000000000E+00  0.16566382200E+04  0.16566382200E+04  0.00000000000E+00 0. -1.
       -3   -1    0    0    0  501  0.00000000000E+00  0.00000000000E+00 -0.58089087529E+03  0.58089087529E+03  0.00000000000E+00 0. -1.
  1000006    1    1    2  502    0 -0.16611117737E+02 -0.30390844026E+03  0.40289671249E+03  0.61437938624E+03  0.35000000000E+03 0.  0.
 -1000006    1    1    2    0  501 -0.20729509085E+03 -0.43696290003E+03  0.57847192160E+03  0.83128671033E+03  0.35000000000E+03 0.  0.
       21    1    1    2  504  503  0.35917452018E+02  0.20332830078E+02  0.97687330442E+01  0.42413623799E+02  0.00000000000E+00 0. -1.
       -3    1    1    2    0  504  0.18798875657E+03  0.72053851022E+03  0.84609977592E+02  0.74944937495E+03  0.00000000000E+00 0. -1.
<scales pt_clust_1="13000.00000" pt_clust_2="13000.00000" pt_clust_3="32.54972" pt_clust_4="786.21859"></scales>
<clustering>
<clus scale="   32.550">  5  6 -1 -1</clus>
<clus scale="  369.221">  3  4 -1 -1</clus>
<clus scale="  786.219">  2  5  1 -1</clus>
<clus scale=" 1061.539">  1  3  2 -1</clus>
</clustering>
</event>
<event>
 5   1  0.3464723E-02  0.3900105E+03  0.7816531E-02  0.1047295E+00
       21   -1    0    0  501  502  0.00000000000E+00  0.00000000000E+00  0.18915379631E+03  0.18915379631E+03  0.00000000000E+00 0.  1.
       21   -1    0    0  502  503  0.00000000000E+00  0.00000000000E+00 -0.14721846051E+04  0.14721846051E+04  0.00000000000E+00 0. -1.
  1000006    1    1    2  501    0  0.18451027338E+03  0.76772593823E+00 -0.24247616908E+03  0.46404668187E+03  0.35000000000E+03 0.  0.
 -1000006    1    1    2    0  504 -0.15491817973E+03  0.21648299812E+02 -0.39420931219E+03  0.54988114453E+03  0.35000000000E+03 0.  0.
       21    1    1    2  504  503 -0.29592093649E+02 -0.22416025751E+02 -0.64634532752E+03  0.64741057500E+03  0.00000000000E+00 0. -1.
<scales pt_clust_1="13000.00000" pt_clust_2="13000.00000" pt_clust_3="37.12372"></scales>
<clustering>
<clus scale="   37.124">  2  5  1 -1</clus>
<clus scale="  390.011">  1  3  2 -1</clus>
<clus scale="  390.011">  1  3  2 -1</clus>
</clustering>
</event>
<event>
 5   1  0.3464723E-02  0.4960636E+03  0.7816531E-02  0.1014812E+00
       21   -1    0    0  501  502  0.00000000000E+00  0.00000000000E+00  0.79104470089E+03  0.79104470089E+03  0.00000000000E+00 0. -1.
       21   -1    0    0  504  503  0.00000000000E+00  0.00000000000E+00 -0.36849470768E+03  0.36849470768E+03  0.00000000000E+00 0. -1.
  1000006    1    1    2  501    0  0.21453025719E+03 -0.25751474808E+03  0.23118552504E+03  0.53692068661E+03  0.35000000000E+03 0.  0.
 -1000006    1    1    2    0  503 -0.20147836949E+03  0.30495181227E+03  0.95668665403E+02  0.51501614996E+03  0.35000000000E+03 0.  0.
       21    1    1    2  504  502 -0.13051887701E+02 -0.47437064196E+02  0.95695802768E+02  0.10760257199E+03  0.00000000000E+00 0.  1.
<scales pt_clust_1="13000.00000" pt_clust_2="13000.00000" pt_clust_3="49.19987"></scales>
<clustering>
<clus scale="   49.200">  1  5  2 -1</clus>
<clus scale="  496.064">  1  3  2 -1</clus>
<clus scale="  496.064">  1  3  2 -1</clus>
</clustering>
</event>
<event>
 6   2  0.3464723E-02  0.3582285E+03  0.7816531E-02  0.1059288E+00
       21   -1    0    0  505  502  0.00000000000E+00  0.00000000000E+00  0.64679815975E+03  0.64679815975E+03  0.00000000000E+00 0. -1.
       21   -1    0    0  502  503  0.00000000000E+00  0.00000000000E+00 -0.70270747751E+03  0.70270747751E+03  0.00000000000E+00 0. -1.
  1000006    1    1    2  501    0  0.12910497623E+03  0.63336859377E+02  0.11973062634E+03  0.39688168959E+03  0.35000000000E+03 0.  0.
 -1000006    1    1    2    0  504  0.24099264854E+02 -0.10461862873E+03 -0.31478366977E+03  0.48281941841E+03  0.35000000000E+03 0.  0.
       21    1    1    2  504  503  0.13571072895E+02  0.38705538384E+02 -0.13930693701E+03  0.14521954214E+03  0.00000000000E+00 0.  1.
       21    1    1    2  505  501 -0.16677531398E+03  0.25762309655E+01  0.27845066267E+03  0.32458498712E+03  0.00000000000E+00 0. -1.
<scales pt_clust_1="13000.00000" pt_clust_2="13000.00000" pt_clust_3="41.01576" pt_clust_4="166.26903"></scales>
<clustering>
<clus scale="   41.016">  2  5  1 -1</clus>
<clus scale="  166.269">  1  6  2 -1</clus>
<clus scale="  358.228">  2  4  1 -1</clus>
<clus scale="  358.228">  1  3  2 -1</clus>
</clustering>
</event>
<event>
 4   0  0.3464723E-02  0.3596296E+03  0.7816531E-02  0.1058731E+00
       21   -1    0    0  503  502  0.00000000000E+00  0.00000000000E+00  0.39181714436E+03  0.39181714436E+03  0.00000000000E+00 0.  1.
       21   -1    0    0  501  503  0.00000000000E+00  0.00000000000E+00 -0.35688387403E+03  0.35688387403E+03  0.00000000000E+00 0.  1.
  1000006    1    1    2  501    0  0.68036838340E+02 -0.46951426294E+02 -0.85113482956E+02  0.36956427422E+03  0.35000000000E+03 0.  0.
 -1000006    1    1    2    0  502 -0.68036838340E+02  0.46951426294E+02  0.12004675329E+03  0.37913674417E+03  0.35000000000E+03 0.  0.
<scales pt_clust_1="13000.00000" pt_clust_2="13000.00000"></scales>
<clustering>
<clus scale="  359.630">  2  3  1 -1</clus>
<clus scale="  359.630">  1  3  2 -1</clus>
</clustering>
</event>
<event>
 6   2  0.3464723E-02  0.6384575E+03  0.7816531E-02  0.9828682E-01
       21   -1    0    0  505  502  0.00000000000E+00  0.00000000000E+00  0.14069154120E+04  0.14069154120E+04  0.00000000000E+00 0.  1.
       21   -1    0    0  504  503  0.00000000000E+00  0.00000000000E+00 -0.74980428382E+03  0.74980428382E+03  0.00000000000E+00 0. -1.
  1000006    1    1    2  501    0  0.46990479325E+03 -0.19081800565E+03 -0.26469809521E+01  0.61622157745E+03  0.35000000000E+03 0.  0.
 -1000006    1    1    2    0  503 -0.51385650034E+03  0.21411133494E+03 -0.15634654845E+03  0.67589674500E+03  0.35000000000E+03 0.  0.
       21    1    1    2  504  502  0.71112686520E+02 -0.30490945442E+01  0.29146469003E+02  0.76914418785E+02  0.00000000000E+00 0.  1.
       21    1    1    2  505  501 -0.27160979430E+02 -0.20244234741E+02  0.78695818862E+03  0.78768695462E+03  0.00000000000E+00 0.  1.
<scales pt_clust_1="13000.00000" pt_clust_2="13000.00000" pt_clust_3="68.95400" pt_clust_4="33.87548"></scales>
<clustering>
<clus scale="   33.875">  1  6  2 -1</clus>
<clus scale="   68.954">  1  5  2 -1</clus>
<clus scale="  638.458">  1  3  2 -1</clus>
<clus scale="  638.458">  1  3  2 -1</clus>
</clustering>
</event>
<event>
 5   1  0.3464723E-02  0.3529432E+03  0.7816531E-02  0.1061413E+00
        2   -1    0    0  501    0  0.00000000000E+00  0.00000000000E+00  0.12231458082E+04  0.12231458082E+04  0.00000000000E+00 0. -1.
       21   -1    0    0  502  503  0.00000000000E+00  0.00000000000E+00 -0.15615019837E+03  0.15615019837E+03  0.00000000000E+00 0. -1.
  1000006    1    1    2  501    0  0.65487352005E+01 -0.20288158782E+02  0.43066300570E+03  0.55536035130E+03  0.35000000000E+03 0.  0.
 -1000006    1    1    2    0  503  0.20810067275E+02  0.61306492795E+02  0.25118207425E+03  0.43564203124E+03  0.35000000000E+03 0.  0.
        2    1    1    2  502    0 -0.27358802475E+02 -0.41018334013E+02  0.38515052992E+03  0.38829362407E+03  0.00000000000E+00 0. -1.
<scales pt_clust_1="13000.00000" pt_clust_2="13000.00000" pt_clust_3="49.30525"></scales>
<clustering>
<clus scale="   49.305">  1  5  2 -1</clus>
<clus scale="  352.943">  1  3  2 -1</clus>
<clus scale="  352.943">  2  3  1 -1</clus>
</clustering>
</event>
<event>
 6   2  0.3464723E-02  0.4647583E+03  0.7816531E-02  0.1023410E+00
       21   -1    0    0  505  502  0.00000000000E+00  0.00000000000E+00  0.68434318496E+03  0.68434318496E+03  0.00000000000E+00 0.  1.
       21   -1    0    0  504  503  0.00000000000E+00  0.00000000000E+00 -0.16779427634E+04  0.16779427634E+04  0.00000000000E+00 0.  1.
  1000006    1    1    2  501    0  0.56562331852E+02  0.33290379791E+03 -0.73028929079E+03  0.87740907466E+03  0.35000000000E+03 0.  0.
 -1000006    1    1    2    0  502  0.63649437770E+02 -0.16472307587E+03 -0.79791418211E+02  0.40006451114E+03  0.35000000000E+03 0.  0.
       21    1    1    2  504  501  0.33768484337E+02  0.92039049349E+02 -0.57885738085E+03  0.58710081290E+03  0.00000000000E+00 0.  1.
       21    1    1    2  505  503 -0.15398025396E+03 -0.26021977138E+03  0.39533851143E+03  0.49771154964E+03  0.00000000000E+00 0.  1.
<scales pt_clust_1="13000.00000" pt_clust_2="13000.00000" pt_clust_3="98.03824" pt_clust_4="297.85883"></scales>
<clustering>
<clus scale="   98.038">  2  5  1 -1</clus>
<clus scale="  297.859">  1  6  2 -1</clus>
<clus scale="  464.758">  1  4  2 -1</clus>
<clus scale="  464.758">  1  3  2 -1</clus>
</clustering>
</event>
<event>
 6   2  0.3464723E-02  0.5117516E+03  0.7816531E-02  0.1010756E+00
       21   -1    0    0  501  502  0.00000000000E+00  0.00000000000E+00  0.52130233687E+03  0.52130233687E+03  0.00000000000E+00 0.  1.
       21   -1    0    0  502  503  0.00000000000E+00  0.00000000000E+00 -0.76145765944E+03  0.76145765944E+03  0.00000000000E+00 0.  1.
  1000006    1    1    2  501    0  0.34254301730E+03  0.20665861601E+03  0.18494708056E+03  0.56280451747E+03  0.35000000000E+03 0.  0.
 -1000006    1    1    2    0  504 -0.26144713373E+03 -0.17476626627E+03 -0.28590529437E+03  0.55058122826E+03  0.35000000000E+03 0.  0.
       21    1    1    2  504  505 -0.46834944201E+02  0.16607504542E+01 -0.53098429598E+02  0.70821700885E+02  0.00000000000E+00 0. -1.
       21    1    1    2  505  503 -0.34260939374E+02 -0.33553100202E+02 -0.86098679159E+02  0.98552549702E+02  0.00000000000E+00 0.  1.
<scales pt_clust_1="13000.00000" pt_clust_2="13000.00000" pt_clust_3="40.97663" pt_clust_4="96.49768"></scales>
<clustering>
<clus scale="   40.977">  5  6 -1 -1</clus>
<clus scale="   96.498">  2  5  1 -1</clus>
<clus scale="  511.752">  1  3  2 -1</clus>
<clus scale="  511.752">  1  3  2 -1</clus>
</clustering>
</event>
<event>
 6   2  0.3464723E-02  0.4034223E+03  0.7816531E-02  0.1042601E+00
       21   -1    0    0  501  503  0.00000000000E+00  0.00000000000E+00  0.34653786722E+03  0.34653786722E+03  0.00000000000E+00 0. -1.
        2   -1    0    0  504    0  0.00000000000E+00  0.00000000000E+00 -0.21160217380E+04  0.21160217380E+04  0.00000000000E+00 0. -1.
  1000006    1    1    2  501    0  0.12100635772E+03  0.16458617869E+03  0.16056842368E+02  0.40557239923E+03  0.35000000000E+03 0.  0.
 -1000006    1    1    2    0  502 -0.22416610223E+02 -0.21147979254E+03 -0.19092819793E+03  0.45186257184E+03  0.35000000000E+03 0.  0.
       21    1    1    2  504  503 -0.26114827753E+02 -0.15901119268E+02 -0.58378156128E+02  0.65900219540E+02  0.00000000000E+00 0.  1.
        2    1    1    2  502    0 -0.72474919748E+02  0.62794733117E+02 -0.15362343591E+04  0.15392244146E+04  0.00000000000E+00 0. -1.
<scales pt_clust_1="13000.00000" pt_clust_2="13000.00000" pt_clust_3="30.57499" pt_clust_4="105.16042"></scales>
<clustering>
<clus scale="   30.575">  2  5  1 -1</clus>
<clus scale="  105.160">  2  6  1 -1</clus>
<clus scale="  403.422">  1  3  2 -1</clus>
<clus scale="  403.422">  1  3  2 -1</clus>
</clustering>
</event>
<event>
 5   1  0.3464723E-02  0.3586209E+03  0.7816531E-02  0.1059131E+00
       21   -1    0    0  504  502  0.00000000000E+00  0.00000000000E+00  0.71544346081E+03  0.71544346081E+03  0.00000000000E+00 0. -1.
       21   -1    0    0  501  503  0.00000000000E+00  0.00000000000E+00 -0.23894860344E+03  0.23894860344E+03  0.00000000000E+00 0. -1.
  1000006    1    1    2  501    0 -0.71904120382E+02 -0.58973771986E+02  0.18923768464E+03  0.40860617910E+03  0.35000000000E+03 0.  0.
 -1000006    1    1    2    0  502  0.17805915013E+02  0.72474806825E+02  0.32089328457E+03  0.48066843907E+03  0.35000000000E+03 0.  0.
       21    1    1    2  504  503  0.54098205370E+02 -0.13501034839E+02 -0.33636111838E+02  0.65117446092E+02  0.00000000000E+00 0. -1.
<scales pt_clust_1="13000.00000" pt_clust_2="13000.00000" pt_clust_3="55.75745"></scales>
<clustering>
<clus scale="   55.757">  2  5  1 -1</clus>
<clus scale="  358.621">  2  3  1 -1</clus>
<clus scale="  358.621">  1  3  2 -1</clus>
</clustering>
</event>
<event>
 4   0  0.3464723E-02  0.4453661E+03  0.7816531E-02  0.1029113E+00
       21   -1    0    0  503  502  0.00000000000E+00  0.00000000000E+00  0.32528362742E+03  0.32528362742E+03  0.00000000000E+00 0. -1.
       21   -1    0    0  501  503  0.00000000000E+00  0.00000000000E+00 -0.64376795661E+03  0.64376795661E+03  0.00000000000E+00 0.  1.
  1000006    1    1    2  501    0  0.24329503154E+03  0.12906771657E+03 -0.27057534591E+03  0.52111607694E+03  0.35000000000E+03 0.  0.
 -1000006    1    1    2    0  502 -0.24329503154E+03 -0.12906771657E+03 -0.47908983274E+02  0.44793550709E+03  0.35000000000E+03 0.  0.
<scales pt_clust_1="13000.00000" pt_clust_2="13000.00000"></scales>
<clustering>
<clus scale="  445.366">  2  3  1 -1</clus>
<clus scale="  445.366">  1  3  2 -1</clus>
</clustering>
</event>
<event>
 5   1  0.3464723E-02  0.3502992E+03  0.7816531E-02  0.1062492E+00
       21   -1    0    0  503  502  0.00000000000E+00  0.00000000000E+00  0.51525522919E+03  0.51525522919E+03  0.00000000000E+00 0.  1.
       21   -1    0    0  501  503  0.00000000000E+00  0.00000000000E+00 -0.42916789957E+03  0.42916789957E+03  0.00000000000E+00 0.  1.
  1000006    1    1    2  501    0  0.20229672837E+01  0.16803098620E+02 -0.15133580952E+03  0.38169223697E+03  0.35000000000E+03 0.  0.
 -1000006    1    1    2    0  504  0.33477699974E+02  0.57231190669E+02  0.52074936827E+02  0.36001106181E+03  0.35000000000E+03 0.  0.
       21    1    1    2  504  502 -0.35500667258E+02 -0.74034289289E+02  0.18534820232E+03  0.20271982998E+03  0.00000000000E+00 0.  1.
<scales pt_clust_1="13000.00000" pt_clust_2="13000.00000" pt_clust_3="82.10587"></scales>
<clustering>
<clus scale="   82.106">  1  5  2 -1</clus>
<clus scale="  350.299">  1  4  2 -1</clus>
<clus scale="  350.299">  1  3  2 -1</clus>
</clustering>
</event>
<event>
 6   2  0.3464723E-02  0.4452612E+03  0.7816531E-02  0.1029145E+00
       21   -1    0    0  505  502  0.00000000000E+00  0.00000000000E+00  0.72838030888E+03  0.72838030888E+03  0.00000000000E+00 0. -1.
       21   -1    0    0  501  503  0.00000000000E+00  0.00000000000E+00 -0.38569476449E+03  0.38569476449E+03  0.00000000000E+00 0. -1.
  1000006    1    1    2  501    0 -0.30035961834E+03 -0.55809220474E+02  0.16169228216E+02  0.46485698162E+03  0.35000000000E+03 0.  0.
 -1000006    1    1    2    0  502  0.21994395196E+03  0.87754458780E+02  0.20381711620E+03  0.46916692541E+03  0.35000000000E+03 0.  0.
       21    1    1    2  504  503  0.10216988434E+02 -0.36207164048E+02 -0.11370549416E+01  0.37638258129E+02  0.00000000000E+00 0. -1.
       21    1    1    2  505  504  0.70198677945E+02  0.42619257409E+01  0.12383625491E+03  0.14241290822E+03  0.00000000000E+00 0.  1.
<scales pt_clust_1="13000.00000" pt_clust_2="13000.00000" pt_clust_3="37.62108" pt_clust_4="70.53705"></scales>
<clustering>
<clus scale="   37.621">  2  5  1 -1</clus>
<clus scale="   70.537">  1  6  2 -1</clus>
<clus scale="  445.261">  2  3  1 -1</clus>
<clus scale="  445.261">  1  3  2 -1</clus>
</clustering>
</event>
<event>
 6   2  0.3464723E-02  0.4421901E+03  0.7816531E-02  0.1030077E+00
       21   -1    0    0  501  502  0.00000000000E+00  0.00000000000E+00  0.55056648879E+03  0.55056648879E+03  0.00000000000E+00 0.  1.
       21   -1    0    0  504  503  0.00000000000E+00  0.00000000000E+00 -0.57114341350E+03  0.57114341350E+03  0.00000000000E+00 0.  1.
  1000006    1    1    2  501    0  0.23084923677E+03  0.14086373946E+03  0.22150276547E+03  0.49466901897E+03  0.35000000000E+03 0.  0.
 -1000006    1    1    2    0  503 -0.24084300429E+03 -0.64375726707E+02 -0.23479775407E+03  0.48967292371E+03  0.35000000000E+03 0.  0.
       21    1    1    2  504  505 -0.27957264475E+02 -0.39085526688E+02 -0.49795530169E+02  0.69201747509E+02  0.00000000000E+00 0. -1.
       21    1    1    2  505  502  0.37951031995E+02 -0.37402486069E+02  0.42513594049E+02  0.68166212104E+02  0.00000000000E+00 0.  1.
<scales pt_clust_1="13000.00000" pt_clust_2="13000.00000" pt_clust_3="48.05504" pt_clust_4="53.48624"></scales>
<clustering>
<clus scale="   48.055">  2  5  1 -1</clus>
<clus scale="   53.486">  1  6  2 -1</clus>
<clus scale="  442.190">  1  3  2 -1</clus>
<clus scale="  442.190">  1  3  2 -1</clus>
</clustering>
</event>
<event>
 4   0  0.3464723E-02  0.3579774E+03  0.7816531E-02  0.1059388E+00
        1   -1    0    0  502    0  0.00000000000E+00  0.00000000000E+00  0.22973626368E+04  0.22973626368E+04  0.00000000000E+00 0. -1.
       -1   -1    0    0    0  501  0.00000000000E+00  0.00000000000E+00 -0.55932332452E+02  0.55932332452E+02  0.00000000000E+00 0.  1.
  1000006    1    1    2  502    0  0.75152119292E+02 -0.61810327070E-01  0.11820371816E+04  0.12350545508E+04  0.35000000000E+03 0.  0.
 -1000006    1    1    2    0  501 -0.75152119292E+02  0.61810327070E-01  0.10593931228E+04  0.11182404184E+04  0.35000000000E+03 0.  0.
<scales pt_clust_1="13000.00000" pt_clust_2="13000.00000"></scales>
<clustering>
<clus scale="  382.737">  3  4 -1 -1</clus>
<clus scale="  357.977">  1  3  2 -1</clus>
</clustering>
</event>
<event>
 6   2  0.3464723E-02  0.4133945E+03  0.7816531E-02  0.1039238E+00
       21   -1    0    0  503  502  0.00000000000E+00  0.00000000000E+00  0.74045956110E+03  0.74045956110E+03  0.00000000000E+00 0.  1.
       21   -1    0    0  501  503  0.00000000000E+00  0.00000000000E+00 -0.45476225614E+03  0.45476225614E+03  0.00000000000E+00 0.  1.
  1000006    1    1    2  501    0 -0.21404244329E+03  0.81461677049E+02 -0.22295634128E+03  0.47398280820E+03  0.35000000000E+03 0.  0.
 -1000006    1    1    2    0  504  0.19856990183E+03 -0.48832154609E+01  0.32652035058E+03  0.51823680982E+03  0.35000000000E+03 0.  0.
       21    1    1    2  504  505  0.21862707965E+01 -0.39914974082E+02  0.43898979314E+02  0.59372597390E+02  0.00000000000E+00 0. -1.
       21    1    1    2  505  502  0.13286270662E+02 -0.36663487506E+02  0.13823431635E+03  0.14362960183E+03  0.00000000000E+00 0.  1.
<scales pt_clust_1="13000.00000" pt_clust_2="13000.00000" pt_clust_3="43.20128" pt_clust_4="38.99662"></scales>
<clustering>
<clus scale="   38.997">  1  6  2 -1</clus>
<clus scale="   43.201">  1  5  2 -1</clus>
<clus scale="  413.394">  1  4  2 -1</clus>
<clus scale="  413.394">  1  3  2 -1</clus>
</clustering>
</event>
<event>
 4   0  0.3464723E-02  0.3518174E+03  0.7816531E-02  0.1061872E+00
       21   -1    0    0  503  502  0.00000000000E+00  0.00000000000E+00  0.22196855493E+03  0.22196855493E+03  0.00000000000E+00 0. -1.
       21   -1    0    0  501  503  0.00000000000E+00  0.00000000000E+00 -0.57699816687E+03  0.57699816687E+03  0.00000000000E+00 0. -1.
  1000006    1    1    2  501    0  0.35578468991E+02 -0.31127250668E+01 -0.25071236263E+03  0.43200949675E+03  0.35000000000E+03 0.  0.
 -1000006    1    1    2    0  502 -0.35578468991E+02  0.31127250668E+01 -0.10431724931E+03  0.36695722505E+03  0.35000000000E+03 0.  0.
<scales pt_clust_1="13000.00000" pt_clust_2="13000.00000"></scales>
<clustering>
<clus scale="  351.817">  2  3  1 -1</clus>
<clus scale="  351.817">  1  3  2 -1</clus>
</clustering>
</event>
<event>
 6   2  0.3464723E-02  0.3866311E+03  0.7816531E-02  0.1048510E+00
       21   -1    0    0  503  502  0.00000000000E+00  0.00000000000E+00  0.36476899162E+03  0.36476899162E+03  0.00000000000E+00 0. -1.
       21   -1    0    0  504  503  0.00000000000E+00  0.00000000000E+00 -0.17481206193E+04  0.17481206193E+04  0.00000000000E+00 0. -1.
  1000006    1    1    2  501    0 -0.15738222412E+03  0.20894906956E+03 -0.19400435945E+03  0.47808636210E+03  0.35000000000E+03 0.  0.
 -1000006    1    1    2    0  502  0.13926087178E+03 -0.10675784125E+02  0.44324804267E+02  0.37943675500E+03  0.35000000000E+03 0.  0.
       21    1    1    2  504  505 -0.26424861474E+02 -0.36791616812E+02 -0.53413685779E+03  0.53605417564E+03  0.00000000000E+00 0. -1.
       21    1    1    2  505  501  0.44546213819E+02 -0.16148166863E+03 -0.69953521470E+03  0.71931231817E+03  0.00000000000E+00 0. -1.
<scales pt_clust_1="13000.00000" pt_clust_2="13000.00000" pt_clust_3="45.29786" pt_clust_4="185.29682"></scales>
<clustering>
<clus scale="   45.298">  2  5  1 -1</clus>
<clus scale="  185.297">  2  6  1 -1</clus>
<clus scale="  386.631">  2  3  1 -1</clus>
<clus scale="  386.631">  1  3  2 -1</clus>
</clustering>
</event>
<event>
 4   0  0.3464723E-02  0.4422396E+03  0.7816531E-02  0.1030062E+00
       21   -1    0    0  503  502  0.00000000000E+00  0.00000000000E+00  0.16938860752E+04  0.16938860752E+04  0.00000000000E+00 0.  1.
       21   -1    0    0  501  503  0.00000000000E+00  0.00000000000E+00 -0.21819432906E+03  0.21819432906E+03  0.00000000000E+00 0.  1.
  1000006    1    1    2  501    0  0.18104805251E+03 -0.20074221641E+03  0.81832739967E+02  0.44974707569E+03  0.35000000000E+03 0.  0.
 -1000006    1    1    2    0  502 -0.18104805251E+03  0.20074221641E+03  0.13938590061E+04  0.14623333285E+04  0.35000000000E+03 0.  0.
<scales pt_clust_1="13000.00000" pt_clust_2="13000.00000"></scales>
<clustering>
<clus scale="  442.240">  2  3  1 -1</clus>
<clus scale="  442.240">  1  3  2 -1</clus>
</clustering>
</event>
<event>
 4   0  0.3464723E-02  0.3886751E+03  0.7816531E-02  0.1047773E+00
       21   -1    0    0  503  502  0.00000000000E+00  0.00000000000E+00  0.62390381124E+03  0.62390381124E+03  0.00000000000E+00 0.  1.
       21   -1    0    0  501  503  0.00000000000E+00  0.00000000000E+00 -0.32920341996E+03  0.32920341996E+03  0.00000000000E+00 0.  1.
  1000006    1    1    2  501    0 -0.12804514180E+03  0.11033022409E+03 -0.97732393844E+02  0.40077417269E+03  0.35000000000E+03 0.  0.
 -1000006    1    1    2    0  502  0.12804514180E+03 -0.11033022409E+03  0.39243278512E+03  0.55233305851E+03  0.35000000000E+03 0.  0.
<scales pt_clust_1="13000.00000" pt_clust_2="13000.00000"></scales>
<clustering>
<clus scale="  388.675">  2  3  1 -1</clus>
<clus scale="  388.675">  1  3  2 -1</clus>
</clustering>
</event>
<event>
 4   0  0.3464723E-02  0.3790495E+03  0.7816531E-02  0.1051286E+00
       21   -1    0    0  503  502  0.00000000000E+00  0.00000000000E+00  0.41308508141E+03  0.41308508141E+03  0.00000000000E+00 0.  1.
       21   -1    0    0  501  503  0.00000000000E+00  0.00000000000E+00 -0.50325673723E+03  0.50325673723E+03  0.00000000000E+00 0.  1.
  1000006    1    1    2  501    0  0.48605909577E+02 -0.13717143576E+03 -0.29971723423E+03  0.48322764587E+03  0.35000000000E+03 0.  0.
 -1000006    1    1    2    0  502 -0.48605909577E+02  0.13717143576E+03  0.20954557841E+03  0.43311417278E+03  0.35000000000E+03 0.  0.
<scales pt_clust_1="13000.00000" pt_clust_2="13000.00000"></scales>
<clustering>
<clus scale="  379.050">  2  3  1 -1</clus>
<clus scale="  379.050">  1  3  2 -1</clus>
</clustering>
</event>
<event>
 6   2  0.3464723E-02  0.4693300E+03  0.7816531E-02  0.1022109E+00
       21   -1    0    0  505  502  0.00000000000E+00  0.00000000000E+00  0.96158456368E+03  0.96158456368E+03  0.00000000000E+00 0.  1.
       21   -1    0    0  501  503  0.00000000000E+00  0.00000000000E+00 -0.35707237843E+03  0.35707237843E+03  0.00000000000E+00 0. -1.
  1000006    1    1    2  501    0 -0.63755625282E+02 -0.30848477204E+03  0.96650899172E+02  0.48069640174E+03  0.35000000000E+03 0.  0.
 -1000006    1    1    2    0  502  0.15326574497E+03  0.29433076483E+03  0.29417410641E+03  0.56494193736E+03  0.35000000000E+03 0.  0.
       21    1    1    2  504  503  0.17142604015E+02  0.26707549170E+02 -0.22879308938E+01  0.31818181639E+02  0.00000000000E+00 0.  1.
       21    1    1    2  505  504 -0.10665272370E+03 -0.12553541958E+02  0.21597511056E+03  0.24120042137E+03  0.00000000000E+00 0.  1.
<scales pt_clust_1="13000.00000" pt_clust_2="13000.00000" pt_clust_3="31.73582" pt_clust_4="106.64553"></scales>
<clustering>
<clus scale="   31.736">  2  5  1 -1</clus>
<clus scale="  106.646">  1  6  2 -1</clus>
<clus scale="  469.330">  2  3  1 -1</clus>
<clus scale="  469.330">  1  3  2 -1</clus>
</clustering>
</event>
<event>
 5   1  0.3464723E-02  0.3671579E+03  0.7816531E-02  0.1055785E+00
       21   -1    0    0  502  503  0.00000000000E+00  0.00000000000E+00  0.21207612736E+03  0.21207612736E+03  0.00000000000E+00 0.  1.
        2   -1    0    0  501    0  0.00000000000E+00  0.00000000000E+00 -0.29644197809E+04  0.29644197809E+04  0.00000000000E+00 0.  1.
  1000006    1    1    2  501    0 -0.52117966658E+02  0.94857060475E+02 -0.35781529561E+03  0.51209953148E+03  0.35000000000E+03 0.  0.
 -1000006    1    1    2    0  503 -0.20208122129E+03 -0.32967937851E+02 -0.19603802785E+03  0.45039384242E+03  0.35000000000E+03 0.  0.
        2    1    1    2  502    0  0.25419918795E+03 -0.61889122624E+02 -0.21984903301E+04  0.22140025343E+04  0.00000000000E+00 0.  1.
<scales pt_clust_1="13000.00000" pt_clust_2="13000.00000" pt_clust_3="261.62471"></scales>
<clustering>
<clus scale="  261.625">  2  5  1 -1</clus>
<clus scale="  367.158">  1  4  2 -1</clus>
<clus scale="  367.158">  1  3  2 -1</clus>
</clustering>
</event>
<event>
 5   1  0.3464723E-02  0.4533769E+03  0.7816531E-02  0.1026720E+00
       21   -1    0    0  501  502  0.00000000000E+00  0.00000000000E+00  0.16214066148E+04  0.16214066148E+04  0.00000000000E+00 0.  1.
       21   -1    0    0  504  503  0.00000000000E+00  0.00000000000E+00 -0.20294652094E+03  0.20294652094E+03  0.00000000000E+00 0.  1.
  1000006    1    1    2  501    0  0.12646148687E+03  0.24630882431E+03  0.70310939245E+03  0.83278050070E+03  0.35000000000E+03 0.  0.
 -1000006    1    1    2    0  503 -0.79044413541E+02 -0.28507307139E+03  0.24964994610E+03  0.52186183127E+03  0.35000000000E+03 0.  0.
       21    1    1    2  504  502 -0.47417073325E+02  0.38764247084E+02  0.46570075535E+03  0.46971080383E+03  0.00000000000E+00 0.  1.
<scales pt_clust_1="13000.00000" pt_clust_2="13000.00000" pt_clust_3="61.24578"></scales>
<clustering>
<clus scale="   61.246">  1  5  2 -1</clus>
<clus scale="  453.377">  1  3  2 -1</clus>
<clus scale="  453.377">  1  3  2 -1</clus>
</clustering>
</event>
<event>
 5   1  0.3464723E-02  0.5719919E+03  0.7816531E-02  0.9965281E-01
        1   -1    0    0  503    0  0.00000000000E+00  0.00000000000E+00  0.21218646120E+04  0.21218646120E+04  0.00000000000E+00 0. -1.
       21   -1    0    0  501  503  0.00000000000E+00  0.00000000000E+00 -0.56761909862E+03  0.56761909862E+03  0.00000000000E+00 0.  1.
  1000006    1    1    2  501    0  0.45273825401E+03 -0.29736823420E+02 -0.27719409966E+03  0.63654754276E+03  0.35000000000E+03 0.  0.
 -1000006    1    1    2    0  502 -0.44296675677E+03  0.71463324600E+02  0.62314442418E+03  0.84388122846E+03  0.35000000000E+03 0.  0.
        1    1    1    2  502    0 -0.97714972387E+01 -0.41726501180E+02  0.12082951888E+04  0.12090549394E+04  0.00000000000E+00 0. -1.
<scales pt_clust_1="13000.00000" pt_clust_2="13000.00000" pt_clust_3="42.85537"></scales>
<clustering>
<clus scale="   42.855">  1  5  2 -1</clus>
<clus scale="  571.992">  2  3  1 -1</clus>
<clus scale="  571.992">  2  3  1 -1</clus>
</clustering>
</event>
<event>
 6   2  0.3464723E-02  0.3680275E+03  0.7816531E-02  0.1055450E+00
       21   -1    0    0  503  502  0.00000000000E+00  0.00000000000E+00  0.49880815487E+03  0.49880815487E+03  0.00000000000E+00 0. -1.
       21   -1    0    0  505  503  0.00000000000E+00  0.00000000000E+00 -0.16144742460E+04  0.16144742460E+04  0.00000000000E+00 0. -1.
  1000006    1    1    2  501    0 -0.30636494884E+02 -0.45810047794E+02 -0.35592385690E+03  0.50221404521E+03  0.35000000000E+03 0.  0.
 -1000006    1    1    2    0  504  0.14106505946E+03  0.11316188196E+03 -0.32284099060E+03  0.50934395819E+03  0.35000000000E+03 0.  0.
       21    1    1    2  504  502 -0.63287379189E+02 -0.54496283854E+02  0.32637214753E+03  0.33688858099E+03  0.00000000000E+00 0. -1.
       21    1    1    2  505  501 -0.47141185390E+02 -0.12855550315E+02 -0.76327339116E+03  0.76483581649E+03  0.00000000000E+00 0. -1.
<scales pt_clust_1="13000.00000" pt_clust_2="13000.00000" pt_clust_3="83.79013" pt_clust_4="48.86263"></scales>
<clustering>
<clus scale="   48.863">  2  6  1 -1</clus>
<clus scale="   83.790">  1  5  2 -1</clus>
<clus scale="  368.027">  2  3  1 -1</clus>
<clus scale="  368.027">  1  3  2 -1</clus>
</clustering>
</event>
<event>
 5   1  0.3464723E-02  0.4893956E+03  0.7816531E-02  0.1016584E+00
        2   -1    0    0  503    0  0.00000000000E+00  0.00000000000E+00  0.29519871158E+04  0.29519871158E+04  0.00000000000E+00 0.  1.
       21   -1    0    0  501  503  0.00000000000E+00  0.00000000000E+00 -0.18258603176E+03  0.18258603176E+03  0.00000000000E+00 0. -1.
  1000006    1    1    2  501    0  0.23037809645E+03  0.22012813836E+03  0.30369817334E+03  0.56237269236E+03  0.35000000000E+03 0.  0.
 -1000006    1    1    2    0  502 -0.38008288980E+03 -0.25618214239E+03  0.20158925179E+04  0.20967629663E+04  0.35000000000E+03 0.  0.
        2    1    1    2  502    0  0.14970479335E+03  0.36054004033E+02  0.44981039286E+03  0.47543748894E+03  0.00000000000E+00 0.  1.
<scales pt_clust_1="13000.00000" pt_clust_2="13000.00000" pt_clust_3="153.98512"></scales>
<clustering>
<clus scale="  153.985">  1  5  2 -1</clus>
<clus scale="  489.396">  1  4  2 -1</clus>
<clus scale="  489.396">  2  3  1 -1</clus>
</clustering>
</event>
<event>
 6   2  0.3464723E-02  0.3841957E+03  0.7816531E-02  0.1049394E+00
       21   -1    0    0  501  503  0.00000000000E+00  0.00000000000E+00  0.11175559923E+04  0.11175559923E+04  0.00000000000E+00 0.  1.
       -2   -1    0    0    0  501  0.00000000000E+00  0.00000000000E+00 -0.32464934997E+03  0.32464934997E+03  0.00000000000E+00 0. -1.
  1000006    1    1    2  502    0 -0.12192834877E+03 -0.14652226256E+03 -0.67318607658E+02  0.40418695006E+03  0.35000000000E+03 0.  0.
 -1000006    1    1    2    0  504  0.10252497330E+03  0.13582375712E+03  0.71870491155E+03  0.81731035294E+03  0.35000000000E+03 0.  0.
       21    1    1    2  504  503  0.19830049272E+02 -0.51979681916E+02  0.14759758025E+03  0.15773447271E+03  0.00000000000E+00 0. -1.
       -2    1    1    2    0  502 -0.42667381022E+00  0.62678187361E+02 -0.60772417737E+01  0.62973566589E+02  0.00000000000E+00 0. -1.
<scales pt_clust_1="13000.00000" pt_clust_2="13000.00000" pt_clust_3="55.63379" pt_clust_4="61.14586"></scales>
<clustering>
<clus scale="   55.634">  1  5  2 -1</clus>
<clus scale="   61.146">  2  6  1 -1</clus>
<clus scale="  384.196">  2  3  1 -1</clus>
<clus scale="  384.196">  1  3  2 -1</clus>
</clustering>
</event>
<event>
 5   1  0.3464723E-02  0.4600622E+03  0.7816531E-02  0.1024763E+00
       21   -1    0    0  501  502  0.00000000000E+00  0.00000000000E+00  0.62407864572E+03  0.62407864572E+03  0.00000000000E+00 0.  1.
       21   -1    0    0  502  503  0.00000000000E+00  0.00000000000E+00 -0.37317093233E+03  0.37317093233E+03  0.00000000000E+00 0. -1.
  1000006    1    1    2  501    0 -0.26669964442E+03 -0.15800463777E+03  0.17865799403E+03  0.50051258198E+03  0.35000000000E+03 0.  0.
 -1000006    1    1    2    0  504  0.23362142140E+03  0.16473495897E+03  0.86480836841E+02  0.46010380392E+03  0.35000000000E+03 0.  0.
       21    1    1    2  504  503  0.33078223021E+02 -0.67303211991E+01 -0.14231117490E+02  0.36633192144E+02  0.00000000000E+00 0. -1.
<scales pt_clust_1="13000.00000" pt_clust_2="13000.00000" pt_clust_3="33.75598"></scales>
<clustering>
<clus scale="   33.756">  2  5  1 -1</clus>
<clus scale="  460.062">  2  4  1 -1</clus>
<clus scale="  460.062">  1  3  2 -1</clus>
</clustering>
</event>
<event>
 5   1  0.3464723E-02  0.3679440E+03  0.7816531E-02  0.1055482E+00
       21   -1    0    0  501  502  0.00000000000E+00  0.00000000000E+00  0.31830716205E+03  0.31830716205E+03  0.00000000000E+00 0. -1.
       21   -1    0    0  504  503  0.00000000000E+00  0.00000000000E+00 -0.59380141014E+03  0.59380141014E+03  0.00000000000E+00 0. -1.
  1000006    1    1    2  501    0 -0.95614330947E+02  0.58343951949E+02 -0.16302988440E+02  0.36784766472E+03  0.35000000000E+03 0.  0.
 -1000006    1    1    2    0  503  0.12060055334E+03 -0.14469627048E+02 -0.10955628726E+03  0.38633721494E+03  0.35000000000E+03 0.  0.
       21    1    1    2  504  502 -0.24986222397E+02 -0.43874324901E+02 -0.14963497239E+03  0.15792369252E+03  0.00000000000E+00 0. -1.
<scales pt_clust_1="13000.00000" pt_clust_2="13000.00000" pt_clust_3="50.49027"></scales>
<clustering>
<clus scale="   50.490">  2  5  1 -1</clus>
<clus scale="  367.944">  2  4  1 -1</clus>
<clus scale="  367.944">  1  3  2 -1</clus>
</clustering>
</event>
<event>
 6   2  0.3464723E-02  0.4012233E+03  0.7816531E-02  0.1043357E+00
       21   -1    0    0  505  502  0.00000000000E+00  0.00000000000E+00  0.11414526613E+04  0.11414526613E+04  0.00000000000E+00 0. -1.
       21   -1    0    0  504  503  0.00000000000E+00  0.00000000000E+00 -0.30204825591E+03  0.30204825591E+03  0.00000000000E+00 0. -1.
  1000006    1    1    2  501    0  0.17509892708E+03 -0.48107287086E+02  0.49797777432E+03  0.63518171341E+03  0.35000000000E+03 0.  0.
 -1000006    1    1    2    0  503 -0.23139714590E+03  0.16845481820E+03  0.20119243488E+03  0.49487378265E+03  0.35000000000E+03 0.  0.
       21    1    1    2  504  502  0.96346613971E+02 -0.18126923427E+03  0.85954360656E+02  0.22255192076E+03  0.00000000000E+00 0. -1.
       21    1    1    2  505  501 -0.40048395150E+02  0.60921703158E+02  0.54279835578E+02  0.90893500429E+02  0.00000000000E+00 0. -1.
<scales pt_clust_1="13000.00000" pt_clust_2="13000.00000" pt_clust_3="194.80970" pt_clust_4="72.90630"></scales>
<clustering>
<clus scale="   72.906">  1  6  2 -1</clus>
<clus scale="  194.810">  2  5  1 -1</clus>
<clus scale="  401.223">  1  3  2 -1</clus>
<clus scale="  401.223">  1  3  2 -1</clus>
</clustering>
</event>
<event>
 6   2  0.3464723E-02  0.3558675E+03  0.7816531E-02  0.1060232E+00
       21   -1    0    0  501  503  0.00000000000E+00  0.00000000000E+00  0.15418297654E+04  0.15418297654E+04  0.00000000000E+00 0. -1.
        2   -1    0    0  503    0  0.00000000000E+00  0.00000000000E+00 -0.27146632342E+04  0.27146632342E+04  0.00000000000E+00 0. -1.
  1000006    1    1    2  501    0 -0.65852689434E+02 -0.14029571532E+02  0.90267111822E+03  0.97048882181E+03  0.35000000000E+03 0.  0.
 -1000006    1    1    2    0  504 -0.94162845940E+02  0.15816880113E+03  0.53558837885E+03  0.66576191148E+03  0.35000000000E+03 0.  0.
       21    1    1    2  504  502  0.85260744191E+02 -0.55819533864E+02 -0.13580354890E+04  0.13618537382E+04  0.00000000000E+00 0. -1.
        2    1    1    2  502    0  0.74754791183E+02 -0.88319695736E+02 -0.12530574769E+04  0.12583885282E+04  0.00000000000E+00 0. -1.
<scales pt_clust_1="13000.00000" pt_clust_2="13000.00000" pt_clust_3="36.12761" pt_clust_4="218.77627"></scales>
<clustering>
<clus scale="   36.128">  5  6 -1 -1</clus>
<clus scale="  218.776">  2  5  1 -1</clus>
<clus scale="  355.868">  1  3  2 -1</clus>
<clus scale="  355.868">  1  3  2 -1</clus>
</clustering>
</event>
<event>
 4   0  0.3464723E-02  0.5231023E+03  0.7816531E-02  0.1007919E+00
       21   -1    0    0  501  502  0.00000000000E+00  0.00000000000E+00  0.16274228072E+03  0.16274228072E+03  0.00000000000E+00 0. -1.
       21   -1    0    0  502  503  0.00000000000E+00  0.00000000000E+00 -0.18931429172E+04  0.18931429172E+04  0.00000000000E+00 0.  1.
  1000006    1    1    2  501    0 -0.37645069993E+03 -0.97061259326E+02 -0.52142524499E+03  0.73859346305E+03  0.35000000000E+03 0.  0.
 -1000006    1    1    2    0  503  0.37645069993E+03  0.97061259326E+02 -0.12089753915E+04  0.13172917349E+04  0.35000000000E+03 0.  0.
<scales pt_clust_1="13000.00000" pt_clust_2="13000.00000"></scales>
<clustering>
<clus scale="  523.102">  1  3  2 -1</clus>
<clus scale="  523.102">  1  3  2 -1</clus>
</clustering>
</event>
<event>
 4   0  0.3464723E-02  0.8491706E+03  0.7816531E-02  0.9491451E-01
       21   -1    0    0  501  502  0.00000000000E+00  0.00000000000E+00  0.80126747060E+03  0.80126747060E+03  0.00000000000E+00 0. -1.
       21   -1    0    0  502  503  0.00000000000E+00  0.00000000000E+00 -0.14824370399E+04  0.14824370399E+04  0.00000000000E+00 0.  1.
  1000006    1    1    2  501    0  0.76537755569E+03 -0.11308383950E+03  0.37517867886E+03  0.92835865838E+03  0.35000000000E+03 0.  0.
 -1000006    1    1    2    0  503 -0.76537755569E+03  0.11308383950E+03 -0.10563482482E+04  0.13553458522E+04  0.35000000000E+03 0.  0.
<scales pt_clust_1="13000.00000" pt_clust_2="13000.00000"></scales>
<clustering>
<clus scale="  849.171">  1  3  2 -1</clus>
<clus scale="  849.171">  1  3  2 -1</clus>
</clustering>
</event>
<event>
 5   1  0.3464723E-02  0.3519065E+03  0.7816531E-02  0.1061835E+00
       21   -1    0    0  501  502  0.00000000000E+00  0.00000000000E+00  0.69910365306E+03  0.69910365306E+03  0.00000000000E+00 0.  1.
       21   -1    0    0  504  503  0.00000000000E+00  0.00000000000E+00 -0.33268110996E+03  0.33268110996E+03  0.00000000000E+00 0.  1.
  1000006    1    1    2  501    0 -0.17040661827E+02 -0.28768574002E+02  0.48266226077E+03  0.59714392987E+03  0.35000000000E+03 0.  0.
 -1000006    1    1    2    0  503 -0.94484520023E+01  0.56355810561E+02 -0.49984372416E+02  0.35813920215E+03  0.35000000000E+03 0.  0.
       21    1    1    2  504  502  0.26489113829E+02 -0.27587236559E+02 -0.66255345248E+02  0.76501631005E+02  0.00000000000E+00 0.  1.
<scales pt_clust_1="13000.00000" pt_clust_2="13000.00000" pt_clust_3="38.24564"></scales>
<clustering>
<clus scale="   38.246">  2  5  1 -1</clus>
<clus scale="  351.906">  2  4  1 -1</clus>
<clus scale="  351.906">  1  3  2 -1</clus>
</clustering>
</event>
<event>
 5   1  0.3464723E-02  0.3527889E+03  0.7816531E-02  0.1061476E+00
       21   -1    0    0  504  502  0.00000000000E+00  0.00000000000E+00  0.13404910318E+04  0.13404910318E+04  0.00000000000E+00 0.  1.
       21   -1    0    0  501  503  0.00000000000E+00  0.00000000000E+00 -0.21228810459E+03  0.21228810459E+03  0.00000000000E+00 0.  1.
  1000006    1    1    2  501    0 -0.62984890213E+02  0.15050515298E+02  0.13995956405E+03  0.38246868365E+03  0.35000000000E+03 0.  0.
 -1000006    1    1    2    0  502 -0.12065350109E+02 -0.53749634361E+02  0.26574359196E+03  0.44289304864E+03  0.35000000000E+03 0.  0.
       21    1    1    2  504  503  0.75050240322E+02  0.38699119063E+02  0.72249977116E+03  0.72741740405E+03  0.00000000000E+00 0.  1.
<scales pt_clust_1="13000.00000" pt_clust_2="13000.00000" pt_clust_3="84.44028"></scales>
<clustering>
<clus scale="   84.440">  1  5  2 -1</clus>
<clus scale="  352.789">  2  3  1 -1</clus>
<clus scale="  352.789">  1  3  2 -1</clus>
</clustering>
</event>
<event>
 6   2  0.3464723E-02  0.3504976E+03  0.7816531E-02  0.1062411E+00
       21   -1    0    0  504  503  0.00000000000E+00  0.00000000000E+00  0.30902904972E+03  0.30902904972E+03  0.00000000000E+00 0.  1.
        1   -1    0    0  501    0  0.00000000000E+00  0.00000000000E+00 -0.67304322620E+03  0.67304322620E+03  0.00000000000E+00 0.  1.
  1000006    1    1    2  501    0 -0.32310063417E+02  0.85803712305E+01 -0.29451384047E+03  0.45864579492E+03  0.35000000000E+03 0.  0.
 -1000006    1    1    2    0  503 -0.52931037289E+02 -0.46401910831E+01  0.37922376906E+02  0.35603557793E+03  0.35000000000E+03 0.  0.
       21    1    1    2  504  502  0.61180681453E+02 -0.34137391556E+02 -0.21650987293E+02  0.73329411125E+02  0.00000000000E+00 0. -1.
        1    1    1    2  502    0  0.24060419253E+02  0.30197211408E+02 -0.85771725621E+02  0.94061491948E+02  0.00000000000E+00 0.  1.
<scales pt_clust_1="13000.00000" pt_clust_2="13000.00000" pt_clust_3="70.64124" pt_clust_4="38.61056"></scales>
<clustering>
<clus scale="   38.611">  2  6  1 -1</clus>
<clus scale="   70.641">  1  5  2 -1</clus>
<clus scale="  350.498">  2  3  1 -1</clus>
<clus scale="  350.498">  1  3  2 -1</clus>
</clustering>
</event>
<event>
 6   2  0.3464723E-02  0.4535094E+03  0.7816531E-02  0.1026681E+00
        2   -1    0    0  503    0  0.00000000000E+00  0.00000000000E+00  0.11829769473E+04  0.11829769473E+04  0.00000000000E+00 0. -1.
       -2   -1    0    0    0  501  0.00000000000E+00  0.00000000000E+00 -0.92507263333E+03  0.92507263333E+03  0.00000000000E+00 0.  1.
  1000006    1    1    2  502    0 -0.25013349256E+03  0.64530774360E+02  0.29861857983E+03  0.52764006781E+03  0.35000000000E+03 0.  0.
 -1000006    1    1    2    0  504  0.28878415930E+03 -0.16489310620E+03  0.69799703778E+02  0.48780941543E+03  0.35000000000E+03 0.  0.
       21    1    1    2  503  502 -0.32999810529E+02 -0.23749956958E+02  0.48376626776E+03  0.48547178061E+03  0.00000000000E+00 0. -1.
       21    1    1    2  504  501 -0.56508562084E+01  0.12411228880E+03 -0.59428023742E+03  0.60712831675E+03  0.00000000000E+00 0.  1.
<scales pt_clust_1="13000.00000" pt_clust_2="13000.00000" pt_clust_3="40.65769" pt_clust_4="124.03682"></scales>
<clustering>
<clus scale="   40.658">  1  5  2 -1</clus>
<clus scale="  124.037">  2  6  1 -1</clus>
<clus scale="  718.567">  3  4 -1 -1</clus>
<clus scale="  453.509">  1  3  2 -1</clus>
</clustering>
</event>
<event>
 6   2  0.3464723E-02  0.6334601E+03  0.7816531E-02  0.9963464E-01
        1   -1    0    0  501    0  0.00000000000E+00  0.00000000000E+00  0.14740818009E+04  0.14740818009E+04  0.00000000000E+00 0. -1.
        2   -1    0    0  503    0  0.00000000000E+00  0.00000000000E+00 -0.10396628876E+04  0.10396628876E+04  0.00000000000E+00 0. -1.
  1000006    1    1    2  501    0  0.36244334619E+03 -0.35633603194E+03  0.52118620495E+03  0.80775962210E+03  0.35000000000E+03 0.  0.
 -1000006    1    1    2    0  502 -0.12217834080E+03 -0.14793034297E+03 -0.99856829415E+02  0.41143932689E+03  0.35000000000E+03 0.  0.
        2    1    1    2  502    0 -0.83845059753E+02 -0.54774471608E+02 -0.50598910919E+03  0.51580540459E+03  0.00000000000E+00 0. -1.
        1    1    1    2  503    0 -0.15641994563E+03  0.55904084652E+03  0.51907864696E+03  0.77874033490E+03  0.00000000000E+00 0. -1.
<scales pt_clust_1="13000.00000" pt_clust_2="13000.00000" pt_clust_3="100.15107" pt_clust_4="527.98863"></scales>
<clustering>
<clus scale="  100.151">  2  5  1 -1</clus>
<clus scale="  423.552">  2  4  1 -1</clus>
<clus scale="  527.989">  1  6  2 -1</clus>
<clus scale="  633.460">  2  3  1 -1</clus>
</clustering>
</event>
<event>
 5   1  0.3464723E-02  0.3918167E+03  0.7816531E-02  0.1046651E+00
        2   -1    0    0  503    0  0.00000000000E+00  0.00000000000E+00  0.18375666413E+04  0.18375666413E+04  0.00000000000E+00 0.  1.
       21   -1    0    0  501  503  0.00000000000E+00  0.00000000000E+00 -0.19487742072E+03  0.19487742072E+03  0.00000000000E+00 0. -1.
  1000006    1    1    2  501    0 -0.15221250154E+03  0.87387692055E+02  0.18312743002E+03  0.43225098030E+03  0.35000000000E+03 0.  0.
 -1000006    1    1    2    0  502  0.11635148886E+03 -0.14425380194E+03  0.49797653417E+03  0.63626052598E+03  0.35000000000E+03 0.  0.
        2    1    1    2  502    0  0.35861012680E+02  0.56866109883E+02  0.96158525637E+03  0.96393255571E+03  0.00000000000E+00 0.  1.
<scales pt_clust_1="13000.00000" pt_clust_2="13000.00000" pt_clust_3="67.22921"></scales>
<clustering>
<clus scale="   67.229">  1  5  2 -1</clus>
<clus scale="  391.817">  2  3  1 -1</clus>
<clus scale="  391.817">  2  3  1 -1</clus>
</clustering>
</event>
<event>
 5   1  0.3464723E-02  0.4144807E+03  0.7816531E-02  0.1038878E+00
       -2   -1    0    0    0  501  0.00000000000E+00  0.00000000000E+00  0.19207778536E+03  0.19207778536E+03  0.00000000000E+00 0.  1.
        2   -1    0    0  503    0  0.00000000000E+00  0.00000000000E+00 -0.12512359318E+04  0.12512359318E+04  0.00000000000E+00 0. -1.
  1000006    1    1    2  502    0 -0.24611759634E+03  0.24498699519E+02 -0.72834008248E+03  0.84507593343E+03  0.35000000000E+03 0.  0.
 -1000006    1    1    2    0  501  0.21102776393E+03 -0.18023507729E+02 -0.18654612351E+03  0.44961874980E+03  0.35000000000E+03 0.  0.
       21    1    1    2  503  502  0.35089832418E+02 -0.64751917898E+01 -0.14427194041E+03  0.14861903390E+03  0.00000000000E+00 0. -1.
<scales pt_clust_1="13000.00000" pt_clust_2="13000.00000" pt_clust_3="35.68227"></scales>
<clustering>
<clus scale="   35.682">  2  5  1 -1</clus>
<clus scale="  685.889">  3  4 -1 -1</clus>
<clus scale="  414.481">  2  3  1 -1</clus>
</clustering>
</event>
<event>
 6   2  0.3464723E-02  0.3673883E+03  0.7816531E-02  0.1055696E+00
       21   -1    0    0  502  503  0.00000000000E+00  0.00000000000E+00  0.35591355898E+03  0.35591355898E+03  0.00000000000E+00 0. -1.
        2   -1    0    0  501    0  0.00000000000E+00  0.00000000000E+00 -0.13098943564E+04  0.13098943564E+04  0.00000000000E+00 0. -1.
  1000006    1    1    2  501    0 -0.64427683129E+02 -0.46442854771E+02 -0.27334129008E+03  0.45113559600E+03  0.35000000000E+03 0.  0.
 -1000006    1    1    2    0  504  0.11128667170E+03 -0.19491383546E+03 -0.29164194290E+03  0.50786922471E+03  0.35000000000E+03 0.  0.
       21    1    1    2  504  503 -0.10773317571E+03  0.16780595139E+02  0.11082949737E+03  0.15547090727E+03  0.00000000000E+00 0. -1.
        2    1    1    2  502    0  0.60874187137E+02  0.22457609509E+03 -0.49982706185E+03  0.55133218744E+03  0.00000000000E+00 0. -1.
<scales pt_clust_1="13000.00000" pt_clust_2="13000.00000" pt_clust_3="109.03222" pt_clust_4="231.63327"></scales>
<clustering>
<clus scale="  109.032">  1  5  2 -1</clus>
<clus scale="  231.633">  2  6  1 -1</clus>
<clus scale="  367.388">  2  3  1 -1</clus>
<clus scale="  367.388">  1  3  2 -1</clus>
</clustering>
</event>
<event>
 6   2  0.3464723E-02  0.4160289E+03  0.7816531E-02  0.1038367E+00
        1   -1    0    0  504    0  0.00000000000E+00  0.00000000000E+00  0.21094452972E+04  0.21094452972E+04  0.00000000000E+00 0. -1.
       21   -1    0    0  502  503  0.00000000000E+00  0.00000000000E+00 -0.37819061360E+03  0.37819061360E+03  0.00000000000E+00 0.  1.
  1000006    1    1    2  501    0 -0.16718227823E+03 -0.20898401739E+03  0.39100794890E+03  0.58907677749E+03  0.35000000000E+03 0.  0.
 -1000006    1    1    2    0  503  0.13372026188E+03  0.16367327900E+03 -0.11350183096E+03  0.42432619095E+03  0.35000000000E+03 0.  0.
       21    1    1    2  504  501 -0.98009553631E+01  0.13606182862E+03  0.64558442225E+03  0.65983947001E+03  0.00000000000E+00 0.  1.
        1    1    1    2  502    0  0.43262971712E+02 -0.90751090231E+02  0.80816414338E+03  0.81439347231E+03  0.00000000000E+00 0. -1.
<scales pt_clust_1="13000.00000" pt_clust_2="13000.00000" pt_clust_3="91.21894" pt_clust_4="100.53579"></scales>
<clustering>
<clus scale="  100.536">  1  6  2 -1</clus>
<clus scale="   91.219">  1  5  2 -1</clus>
<clus scale="  416.029">  1  3  2 -1</clus>
<clus scale="  416.029">  2  3  1 -1</clus>
</clustering>
</event>
<event>
 5   1  0.3464723E-02  0.5631966E+03  0.7816531E-02  0.9984848E-01
       21   -1    0    0  504  502  0.00000000000E+00  0.00000000000E+00  0.92809886278E+03  0.92809886278E+03  0.00000000000E+00 0.  1.
       21   -1    0    0  501  503  0.00000000000E+00  0.00000000000E+00 -0.41446815294E+03  0.41446815294E+03  0.00000000000E+00 0. -1.
  1000006    1    1    2  501    0  0.42914498793E+03  0.85143603316E+02  0.15069613396E+03  0.58019322527E+03  0.35000000000E+03 0.  0.
 -1000006    1    1    2    0  502 -0.42420046392E+03 -0.14216579119E+03  0.22130684848E+03  0.60961780400E+03  0.35000000000E+03 0.  0.
       21    1    1    2  504  503 -0.49445240151E+01  0.57022187874E+02  0.14162772741E+03  0.15275598645E+03  0.00000000000E+00 0. -1.
<scales pt_clust_1="13000.00000" pt_clust_2="13000.00000" pt_clust_3="57.23616"></scales>
<clustering>
<clus scale="   57.236">  1  5  2 -1</clus>
<clus scale="  563.197">  1  4  2 -1</clus>
<clus scale="  563.197">  1  3  2 -1</clus>
</clustering>
</event>
<event>
 5   1  0.3464723E-02  0.3634675E+03  0.7816531E-02  0.1057219E+00
       -3   -1    0    0    0  501  0.00000000000E+00  0.00000000000E+00  0.23846897904E+03  0.23846897904E+03  0.00000000000E+00 0. -1.
       21   -1    0    0  502  503  0.00000000000E+00  0.00000000000E+00 -0.17853605668E+04  0.17853605668E+04  0.00000000000E+00 0. -1.
  1000006    1    1    2  502    0 -0.41065554523E+02 -0.12272784527E+03 -0.10799306329E+04  0.11425842095E+04  0.35000000000E+03 0.  0.
 -1000006    1    1    2    0  501 -0.17065002905E+02  0.56313733441E+02 -0.61432194901E+03  0.70947438850E+03  0.35000000000E+03 0.  0.
       -3    1    1    2    0  503  0.58130557427E+02  0.66414111824E+02  0.14736099414E+03  0.17177094792E+03  0.00000000000E+00 0. -1.
<scales pt_clust_1="13000.00000" pt_clust_2="13000.00000" pt_clust_3="88.26095"></scales>
<clustering>
<clus scale="   88.261">  1  5  2 -1</clus>
<clus scale="  363.468">  2  3  1 -1</clus>
<clus scale="  363.468">  2  3  1 -1</clus>
</clustering>
</event>
<event>
 6   2  0.3464723E-02  0.3934930E+03  0.7816531E-02  0.1046056E+00
        2   -1    0    0  501    0  0.00000000000E+00  0.00000000000E+00  0.27966439856E+04  0.27966439856E+04  0.00000000000E+00 0. -1.
       21   -1    0    0  502  503  0.00000000000E+00  0.00000000000E+00 -0.33782019610E+03  0.33782019610E+03  0.00000000000E+00 0. -1.
  1000006    1    1    2  501    0  0.69069159302E+02 -0.14030975915E+03  0.22426376731E+03  0.44413017755E+03  0.35000000000E+03 0.  0.
 -1000006    1    1    2    0  504 -0.19301637855E+03  0.10696200420E+03  0.69734798773E+02  0.41959401198E+03  0.35000000000E+03 0.  0.
       21    1    1    2  504  503  0.42674192700E+02 -0.15156609389E+01 -0.43318195149E+02  0.60826392147E+02  0.00000000000E+00 0. -1.
        2    1    1    2  502    0  0.81273026548E+02  0.34863415895E+02  0.22081434185E+04  0.22099136000E+04  0.00000000000E+00 0. -1.
<scales pt_clust_1="13000.00000" pt_clust_2="13000.00000" pt_clust_3="42.70110" pt_clust_4="88.55472"></scales>
<clustering>
<clus scale="   42.701">  2  5  1 -1</clus>
<clus scale="   88.555">  1  6  2 -1</clus>
<clus scale="  393.493">  1  3  2 -1</clus>
<clus scale="  393.493">  2  3  1 -1</clus>
</clustering>
</event>
<event>
 5   1  0.3464723E-02  0.4700032E+03  0.7816531E-02  0.1021919E+00
       21   -1    0    0  501  502  0.00000000000E+00  0.00000000000E+00  0.38340617361E+03  0.38340617361E+03  0.00000000000E+00 0.  1.
       21   -1    0    0  502  503  0.00000000000E+00  0.00000000000E+00 -0.15124487848E+04  0.15124487848E+04  0.00000000000E+00 0. -1.
  1000006    1    1    2  501    0 -0.10357138505E+03 -0.30737264417E+03  0.86203751750E+02  0.48490830164E+03  0.35000000000E+03 0.  0.
 -1000006    1    1    2    0  504  0.10675607038E+03  0.26530136379E+03 -0.42766865219E+03  0.62223962286E+03  0.35000000000E+03 0.  0.
       21    1    1    2  504  503 -0.31846853299E+01  0.42071280375E+02 -0.78757771075E+03  0.78870703390E+03  0.00000000000E+00 0.  1.
<scales pt_clust_1="13000.00000" pt_clust_2="13000.00000" pt_clust_3="42.19164"></scales>
<clustering>
<clus scale="   42.192">  2  5  1 -1</clus>
<clus scale="  470.003">  2  4  1 -1</clus>
<clus scale="  470.003">  1  3  2 -1</clus>
</clustering>
</event>
<event>
 5   1  0.3464723E-02  0.6179893E+03  0.7816531E-02  0.9868771E-01
       21   -1    0    0  503  502  0.00000000000E+00  0.00000000000E+00  0.19515967744E+04  0.19515967744E+04  0.00000000000E+00 0. -1.
       21   -1    0    0  504  503  0.00000000000E+00  0.00000000000E+00 -0.20704746709E+03  0.20704746709E+03  0.00000000000E+00 0. -1.
  1000006    1    1    2  501    0 -0.17075351247E+03 -0.47438025750E+03  0.76650407039E+03  0.98194800303E+03  0.35000000000E+03 0.  0.
 -1000006    1    1    2    0  502  0.20272948813E+03  0.47258755707E+03  0.93586172850E+03  0.11237328060E+04  0.35000000000E+03 0.  0.
       21    1    1    2  504  501 -0.31975975662E+02  0.17927004311E+01  0.42183508440E+02  0.52963432467E+02  0.00000000000E+00 0. -1.
<scales pt_clust_1="13000.00000" pt_clust_2="13000.00000" pt_clust_3="32.02619"></scales>
<clustering>
<clus scale="   32.026">  2  5  1 -1</clus>
<clus scale="  617.989">  2  3  1 -1</clus>
<clus scale="  617.989">  1  3  2 -1</clus>
</clustering>
</event>
<event>
 5   1  0.3464723E-02  0.3518734E+03  0.7816531E-02  0.1061849E+00
       21   -1    0    0  501  502  0.00000000000E+00  0.00000000000E+00  0.71887218990E+03  0.71887218990E+03  0.00000000000E+00 0. -1.
       21   -1    0    0  504  503  0.00000000000E+00  0.00000000000E+00 -0.42955095910E+03  0.42955095910E+03  0.00000000000E+00 0. -1.
  1000006    1    1    2  501    0  0.15751309972E+02  0.38478974814E+02  0.48302412156E+03  0.59794735327E+03  0.35000000000E+03 0.  0.
 -1000006    1    1    2    0  503  0.18208503606E+02 -0.32838888569E+02 -0.28499093818E+03  0.45291254901E+03  0.35000000000E+03 0.  0.
       21    1    1    2  504  502 -0.33959813578E+02 -0.56400862448E+01  0.91288047417E+02  0.97563246730E+02  0.00000000000E+00 0. -1.
<scales pt_clust_1="13000.00000" pt_clust_2="13000.00000" pt_clust_3="34.42498"></scales>
<clustering>
<clus scale="   34.425">  1  5  2 -1</clus>
<clus scale="  351.873">  2  4  1 -1</clus>
<clus scale="  351.873">  1  3  2 -1</clus>
</clustering>
</event>
<event>
 5   1  0.3464723E-02  0.4733790E+03  0.7816531E-02  0.1020971E+00
       21   -1    0    0  504  502  0.00000000000E+00  0.00000000000E+00  0.10073475640E+04  0.10073475640E+04  0.00000000000E+00 0.  1.
       21   -1    0    0  501  503  0.00000000000E+00  0.00000000000E+00 -0.29467309697E+03  0.29467309697E+03  0.00000000000E+00 0. -1.
  1000006    1    1    2  501    0  0.19082743016E+02 -0.30127080835E+03  0.30890165221E+03  0.55592129100E+03  0.35000000000E+03 0.  0.
 -1000006    1    1    2    0  502 -0.13821062976E+02  0.33239771340E+03  0.46929898289E+03  0.67336527754E+03  0.35000000000E+03 0.  0.
       21    1    1    2  504  503 -0.52616800396E+01 -0.31126905053E+02 -0.65526168093E+02  0.72734092419E+02  0.00000000000E+00 0. -1.
<scales pt_clust_1="13000.00000" pt_clust_2="13000.00000" pt_clust_3="31.56849"></scales>
<clustering>
<clus scale="   31.568">  2  5  1 -1</clus>
<clus scale="  473.379">  1  4  2 -1</clus>
<clus scale="  473.379">  1  3  2 -1</clus>
</clustering>
</event>
<event>
 4   0  0.3464723E-02  0.4391431E+03  0.7816531E-02  0.1031010E+00
       21   -1    0    0  503  502  0.00000000000E+00  0.00000000000E+00  0.11960074963E+04  0.11960074963E+04  0.00000000000E+00 0. -1.
       21   -1    0    0  501  503  0.00000000000E+00  0.00000000000E+00 -0.16720538092E+03  0.16720538092E+03  0.00000000000E+00 0. -1.
  1000006    1    1    2  501    0 -0.69895589058E+01  0.26513736149E+03  0.38567875212E+03  0.58446109728E+03  0.35000000000E+03 0.  0.
 -1000006    1    1    2    0  502  0.69895589058E+01 -0.26513736149E+03  0.64312336328E+03  0.77875177996E+03  0.35000000000E+03 0.  0.
<scales pt_clust_1="13000.00000" pt_clust_2="13000.00000"></scales>
<clustering>
<clus scale="  439.143">  2  3  1 -1</clus>
<clus scale="  439.143">  1  3  2 -1</clus>
</clustering>
</event>
<event>
 5   1  0.3464723E-02  0.3707432E+03  0.7816531E-02  0.1054409E+00
       21   -1    0    0  501  502  0.00000000000E+00  0.00000000000E+00  0.37803029260E+03  0.37803029260E+03  0.00000000000E+00 0.  1.
       21   -1    0    0  504  503  0.00000000000E+00  0.00000000000E+00 -0.81241572673E+03  0.81241572673E+03  0.00000000000E+00 0. -1.
  1000006    1    1    2  501    0 -0.32243636776E+02  0.98268168893E+02  0.59959221258E+02  0.36985320513E+03  0.35000000000E+03 0.  0.
 -1000006    1    1    2    0  503  0.64549473003E+02 -0.10984202433E+03 -0.60182852966E+03  0.70776372038E+03  0.35000000000E+03 0.  0.
       21    1    1    2  504  502 -0.32305836227E+02  0.11573855435E+02  0.10748387427E+03  0.11282909382E+03  0.00000000000E+00 0.  1.
<scales pt_clust_1="13000.00000" pt_clust_2="13000.00000" pt_clust_3="34.31649"></scales>
<clustering>
<clus scale="   34.316">  1  5  2 -1</clus>
<clus scale="  370.743">  2  4  1 -1</clus>
<clus scale="  370.743">  1  3  2 -1</clus>
</clustering>
</event>
<event>
 5   1  0.3464723E-02  0.3625971E+03  0.7816531E-02  0.1057560E+00
       21   -1    0    0  504  502  0.00000000000E+00  0.00000000000E+00  0.27087616292E+03  0.27087616292E+03  0.00000000000E+00 0. -1.
       21   -1    0    0  501  503  0.00000000000E+00  0.00000000000E+00 -0.62713733733E+03  0.62713733733E+03  0.00000000000E+00 0. -1.
  1000006    1    1    2  501    0 -0.93504918357E+01  0.71216447992E+02 -0.31679106162E+03  0.47750999035E+03  0.35000000000E+03 0.  0.
 -1000006    1    1    2    0  502  0.17462859379E+02 -0.10372722490E+03  0.41638522438E+01  0.36548820269E+03  0.35000000000E+03 0.  0.
       21    1    1    2  504  503 -0.81123675429E+01  0.32510776909E+02 -0.43633965025E+02  0.55015307199E+02  0.00000000000E+00 0. -1.
<scales pt_clust_1="13000.00000" pt_clust_2="13000.00000" pt_clust_3="33.50763"></scales>
<clustering>
<clus scale="   33.508">  2  5  1 -1</clus>
<clus scale="  362.597">  2  3  1 -1</clus>
<clus scale="  362.597">  1  3  2 -1</clus>
</clustering>
</event>
<event>
 5   1  0.3464723E-02  0.3736758E+03  0.7816531E-02  0.1053296E+00
       21   -1    0    0  501  502  0.00000000000E+00  0.00000000000E+00  0.31193647623E+04  0.31193647623E+04  0.00000000000E+00 0.  1.
       21   -1    0    0  504  503  0.00000000000E+00  0.00000000000E+00 -0.19432021617E+03  0.19432021617E+03  0.00000000000E+00 0.  1.
  1000006    1    1    2  501    0  0.14384533430E+03 -0.39035016904E+02  0.22377933925E+04  0.22698974603E+04  0.35000000000E+03 0.  0.
 -1000006    1    1    2    0  503 -0.89001125685E+02  0.64765681604E+01  0.82026712680E+03  0.89627077695E+03  0.35000000000E+03 0.  0.
       21    1    1    2  504  502 -0.54844208612E+02  0.32558448744E+02 -0.13301597321E+03  0.14751674119E+03  0.00000000000E+00 0.  1.
<scales pt_clust_1="13000.00000" pt_clust_2="13000.00000" pt_clust_3="63.78040"></scales>
<clustering>
<clus scale="   63.780">  2  5  1 -1</clus>
<clus scale="  373.676">  1  3  2 -1</clus>
<clus scale="  373.676">  1  3  2 -1</clus>
</clustering>
</event>
<event>
 5   1  0.3464723E-02  0.3734865E+03  0.7816531E-02  0.1053368E+00
       21   -1    0    0  503  502  0.00000000000E+00  0.00000000000E+00  0.86593087581E+03  0.86593087581E+03  0.00000000000E+00 0. -1.
       21   -1    0    0  501  503  0.00000000000E+00  0.00000000000E+00 -0.22341326566E+03  0.22341326566E+03  0.00000000000E+00 0. -1.
  1000006    1    1    2  501    0 -0.13737053588E+03  0.66454593224E+02  0.11996138385E+03  0.40022195180E+03  0.35000000000E+03 0.  0.
 -1000006    1    1    2    0  504  0.99207960525E+02 -0.10870190742E+01  0.37036362422E+03  0.51914604418E+03  0.35000000000E+03 0.  0.
       21    1    1    2  504  502  0.38162575360E+02 -0.65367574150E+02  0.15219260208E+03  0.16997614549E+03  0.00000000000E+00 0.  1.
<scales pt_clust_1="13000.00000" pt_clust_2="13000.00000" pt_clust_3="75.69215"></scales>
<clustering>
<clus scale="   75.692">  1  5  2 -1</clus>
<clus scale="  373.486">  1  4  2 -1</clus>
<clus scale="  373.486">  1  3  2 -1</clus>
</clustering>
</event>
<event>
 5   1  0.3464723E-02  0.3587511E+03  0.7816531E-02  0.1059079E+00
       21   -1    0    0  504  502  0.00000000000E+00  0.00000000000E+00  0.72810319156E+03  0.72810319156E+03  0.00000000000E+00 0.  1.
       21   -1    0    0  501  503  0.00000000000E+00  0.00000000000E+00 -0.22697264504E+03  0.22697264504E+03  0.00000000000E+00 0.  1.
  1000006    1    1    2  501    0 -0.85615533007E+02 -0.27760981063E+02  0.85206564169E+02  0.37129617577E+03  0.35000000000E+03 0.  0.
 -1000006    1    1    2    0  502  0.62799455262E+02 -0.66088493109E+01  0.31631133020E+03  0.47596250491E+03  0.35000000000E+03 0.  0.
       21    1    1    2  504  503  0.22816077745E+02  0.34369830374E+02  0.99612652148E+02  0.10781715592E+03  0.00000000000E+00 0.  1.
<scales pt_clust_1="13000.00000" pt_clust_2="13000.00000" pt_clust_3="41.25359"></scales>
<clustering>
<clus scale="   41.254">  1  5  2 -1</clus>
<clus scale="  358.751">  2  3  1 -1</clus>
<clus scale="  358.751">  1  3  2 -1</clus>
</clustering>
</event>
<event>
 4   0  0.3464723E-02  0.3612658E+03  0.7816531E-02  0.1058084E+00
       21   -1    0    0  503  502  0.00000000000E+00  0.00000000000E+00  0.85612669975E+03  0.85612669975E+03  0.00000000000E+00 0.  1.
       21   -1    0    0  501  503  0.00000000000E+00  0.00000000000E+00 -0.15995694250E+03  0.15995694250E+03  0.00000000000E+00 0.  1.
  1000006    1    1    2  501    0  0.44573577780E+02  0.77628248439E+02  0.23799435598E+03  0.43261329415E+03  0.35000000000E+03 0.  0.
 -1000006    1    1    2    0  502 -0.44573577780E+02 -0.77628248439E+02  0.45817540127E+03  0.58347034811E+03  0.35000000000E+03 0.  0.
<scales pt_clust_1="13000.00000" pt_clust_2="13000.00000"></scales>
<clustering>
<clus scale="  361.266">  2  3  1 -1</clus>
<clus scale="  361.266">  1  3  2 -1</clus>
</clustering>
</event>
<event>
 6   2  0.3464723E-02  0.4362503E+03  0.7816531E-02  0.1031904E+00
       21   -1    0    0  501  503  0.00000000000E+00  0.00000000000E+00  0.41752031085E+03  0.41752031085E+03  0.00000000000E+00 0. -1.
        2   -1    0    0  504    0  0.00000000000E+00  0.00000000000E+00 -0.25203711442E+04  0.25203711442E+04  0.00000000000E+00 0.  1.
  1000006    1    1    2  501    0 -0.35626011867E+03  0.11242501021E+03 -0.16461671125E+03  0.53773535935E+03  0.35000000000E+03 0.  0.
 -1000006    1    1    2    0  502  0.20039037110E+03 -0.13802779003E+02 -0.29586251196E+03  0.50038129813E+03  0.35000000000E+03 0.  0.
       21    1    1    2  504  503  0.16116549626E+03 -0.68937550651E+02  0.68821166010E+02  0.18831637201E+03  0.00000000000E+00 0. -1.
        2    1    1    2  502    0 -0.52957486981E+01 -0.29684680560E+02 -0.17111927762E+04  0.17114584256E+04  0.00000000000E+00 0.  1.
<scales pt_clust_1="13000.00000" pt_clust_2="13000.00000" pt_clust_3="175.80629" pt_clust_4="30.15336"></scales>
<clustering>
<clus scale="   30.153">  2  6  1 -1</clus>
<clus scale="  175.806">  1  5  2 -1</clus>
<clus scale="  436.250">  2  4  1 -1</clus>
<clus scale="  436.250">  1  3  2 -1</clus>
</clustering>
</event>
<event>
 5   1  0.3464723E-02  0.3593028E+03  0.7816531E-02  0.1058860E+00
       21   -1    0    0  501  502  0.00000000000E+00  0.00000000000E+00  0.13017980759E+03  0.13017980759E+03  0.00000000000E+00 0. -1.
       21   -1    0    0  504  503  0.00000000000E+00  0.00000000000E+00 -0.14648095458E+04  0.14648095458E+04  0.00000000000E+00 0. -1.
  1000006    1    1    2  501    0 -0.62286987299E+02 -0.34675648566E+02 -0.64824109477E+03  0.74013416779E+03  0.35000000000E+03 0.  0.
 -1000006    1    1    2    0  503  0.10007560925E+03 -0.33733577617E+02 -0.68527495532E+03  0.77669482180E+03  0.35000000000E+03 0.  0.
       21    1    1    2  504  502 -0.37788621947E+02  0.68409226183E+02 -0.11136881681E+01  0.78160363849E+02  0.00000000000E+00 0.  1.
<scales pt_clust_1="13000.00000" pt_clust_2="13000.00000" pt_clust_3="78.15243"></scales>
<clustering>
<clus scale="   78.152">  1  5  2 -1</clus>
<clus scale="  359.303">  1  3  2 -1</clus>
<clus scale="  359.303">  1  3  2 -1</clus>
</clustering>
</event>
<event>
 5   1  0.3464723E-02  0.4160622E+03  0.7816531E-02  0.1038356E+00
       21   -1    0    0  501  502  0.00000000000E+00  0.00000000000E+00  0.87963627806E+03  0.87963627806E+03  0.00000000000E+00 0. -1.
       21   -1    0    0  504  503  0.00000000000E+00  0.00000000000E+00 -0.89011305270E+03  0.89011305270E+03  0.00000000000E+00 0. -1.
  1000006    1    1    2  501    0 -0.15099852264E+03  0.14219515996E+03 -0.25155274936E+03  0.47832917857E+03  0.35000000000E+03 0.  0.
 -1000006    1    1    2    0  503  0.18233832486E+03 -0.15347057201E+03 -0.43934528958E+03  0.61018420552E+03  0.35000000000E+03 0.  0.
       21    1    1    2  504  502 -0.31339802219E+02  0.11275412043E+02  0.68042126431E+03  0.68123594667E+03  0.00000000000E+00 0. -1.
<scales pt_clust_1="13000.00000" pt_clust_2="13000.00000" pt_clust_3="33.30643"></scales>
<clustering>
<clus scale="   33.306">  1  5  2 -1</clus>
<clus scale="  416.062">  1  3  2 -1</clus>
<clus scale="  416.062">  1  3  2 -1</clus>
</clustering>
</event>
<event>
 4   0  0.3464723E-02  0.3594754E+03  0.7816531E-02  0.1058792E+00
       21   -1    0    0  501  502  0.00000000000E+00  0.00000000000E+00  0.15420566072E+04  0.15420566072E+04  0.00000000000E+00 0.  1.
       21   -1    0    0  502  503  0.00000000000E+00  0.00000000000E+00 -0.10895819714E+03  0.10895819714E+03  0.00000000000E+00 0.  1.
  1000006    1    1    2  501    0  0.45555022953E+02 -0.68171308310E+02  0.11132294801E+04  0.11698301000E+04  0.35000000000E+03 0.  0.
 -1000006    1    1    2    0  503 -0.45555022953E+02  0.68171308310E+02  0.31986892999E+03  0.48118470442E+03  0.35000000000E+03 0.  0.
<scales pt_clust_1="13000.00000" pt_clust_2="13000.00000"></scales>
<clustering>
<clus scale="  359.475">  1  3  2 -1</clus>
<clus scale="  359.475">  1  3  2 -1</clus>
</clustering>
</event>
<event>
 4   0  0.3464723E-02  0.5216968E+03  0.7816531E-02  0.1008266E+00
       -2   -1    0    0    0  501  0.00000000000E+00  0.00000000000E+00  0.15441887230E+03  0.15441887230E+03  0.00000000000E+00 0.  1.
        2   -1    0    0  502    0  0.00000000000E+00  0.00000000000E+00 -0.23603680333E+04  0.23603680333E+04  0.00000000000E+00 0. -1.
  1000006    1    1    2  502    0  0.24151720896E+03  0.30222015706E+03 -0.17357853048E+04  0.18124895062E+04  0.35000000000E+03 0.  0.
 -1000006    1    1    2    0  501 -0.24151720896E+03 -0.30222015706E+03 -0.47016385611E+03  0.70229739936E+03  0.35000000000E+03 0.  0.
<scales pt_clust_1="13000.00000" pt_clust_2="13000.00000"></scales>
<clustering>
<clus scale=" 1044.242">  3  4 -1 -1</clus>
<clus scale="  521.697">  2  3  1 -1</clus>
</clustering>
</event>
<event>
 4   0  0.3464723E-02  0.4176165E+03  0.7816531E-02  0.1037845E+00
       21   -1    0    0  503  502  0.00000000000E+00  0.00000000000E+00  0.55279583660E+03  0.55279583660E+03  0.00000000000E+00 0.  1.
       21   -1    0    0  501  503  0.00000000000E+00  0.00000000000E+00 -0.31570966486E+03  0.31570966486E+03  0.00000000000E+00 0.  1.
  1000006    1    1    2  501    0  0.85898773753E+02 -0.21100928111E+03  0.10718121636E+03  0.43115116744E+03  0.35000000000E+03 0.  0.
 -1000006    1    1    2    0  502 -0.85898773753E+02  0.21100928111E+03  0.12990495539E+03  0.43735433401E+03  0.35000000000E+03 0.  0.
<scales pt_clust_1="13000.00000" pt_clust_2="13000.00000"></scales>
<clustering>
<clus scale="  417.616">  2  3  1 -1</clus>
<clus scale="  417.616">  1  3  2 -1</clus>
</clustering>
</event>
<event>
 4   0  0.3464723E-02  0.3554113E+03  0.7816531E-02  0.1060416E+00
       21   -1    0    0  503  502  0.00000000000E+00  0.00000000000E+00  0.50162990389E+03  0.50162990389E+03  0.00000000000E+00 0. -1.
       21   -1    0    0  501  503  0.00000000000E+00  0.00000000000E+00 -0.25182506864E+03  0.25182506864E+03  0.00000000000E+00 0. -1.
  1000006    1    1    2  501    0  0.12309932628E+02 -0.60544574530E+02  0.12234860792E+03  0.37588078137E+03  0.35000000000E+03 0.  0.
 -1000006    1    1    2    0  502 -0.12309932628E+02  0.60544574530E+02  0.12745622733E+03  0.37757419116E+03  0.35000000000E+03 0.  0.
<scales pt_clust_1="13000.00000" pt_clust_2="13000.00000"></scales>
<clustering>
<clus scale="  355.411">  2  3  1 -1</clus>
<clus scale="  355.411">  1  3  2 -1</clus>
</clustering>
</event>
<event>
 4   0  0.3464723E-02  0.4667545E+03  0.7816531E-02  0.1022840E+00
       21   -1    0    0  503  502  0.00000000000E+00  0.00000000000E+00  0.70778175743E+03  0.70778175743E+03  0.00000000000E+00 0. -1.
       21   -1    0    0  501  503  0.00000000000E+00  0.00000000000E+00 -0.38784205844E+03  0.38784205844E+03  0.00000000000E+00 0. -1.
  1000006    1    1    2  501    0 -0.17203369514E+03  0.25644519491E+03 -0.88884864427E+02  0.47514234644E+03  0.35000000000E+03 0.  0.
 -1000006    1    1    2    0  502  0.17203369514E+03 -0.25644519491E+03  0.40882456342E+03  0.62048146943E+03  0.35000000000E+03 0.  0.
<scales pt_clust_1="13000.00000" pt_clust_2="13000.00000"></scales>
<clustering>
<clus scale="  466.754">  2  3  1 -1</clus>
<clus scale="  466.754">  1  3  2 -1</clus>
</clustering>
</event>
<event>
 6   2  0.3464723E-02  0.4231473E+03  0.7816531E-02  0.1036047E+00
        1   -1    0    0  504    0  0.00000000000E+00  0.00000000000E+00  0.95199493695E+03  0.95199493695E+03  0.00000000000E+00 0.  1.
       21   -1    0    0  502  503  0.00000000000E+00  0.00000000000E+00 -0.61422114026E+03  0.61422114026E+03  0.00000000000E+00 0.  1.
  1000006    1    1    2  501    0 -0.63513872212E+02  0.23488402618E+03  0.21654029468E+03  0.47811527579E+03  0.35000000000E+03 0.  0.
 -1000006    1    1    2    0  503  0.16606370581E+03 -0.17691602462E+03 -0.35889458661E+03  0.55693963627E+03  0.35000000000E+03 0.  0.
       21    1    1    2  504  501  0.24368719124E+02  0.49155803521E+02  0.71904591993E+02  0.90445551805E+02  0.00000000000E+00 0. -1.
        1    1    1    2  502    0 -0.12691855272E+03 -0.10712380509E+03  0.40822349663E+03  0.44071561334E+03  0.00000000000E+00 0.  1.
<scales pt_clust_1="13000.00000" pt_clust_2="13000.00000" pt_clust_3="54.86463" pt_clust_4="141.95225"></scales>
<clustering>
<clus scale="   54.865">  1  5  2 -1</clus>
<clus scale="  141.952">  1  6  2 -1</clus>
<clus scale="  423.147">  1  3  2 -1</clus>
<clus scale="  423.147">  2  3  1 -1</clus>
</clustering>
</event>
<event>
 6   2  0.3464723E-02  0.6878444E+03  0.7816531E-02  0.9738249E-01
       21   -1    0    0  504  502  0.00000000000E+00  0.00000000000E+00  0.13621905017E+04  0.13621905017E+04  0.00000000000E+00 0.  1.
       21   -1    0    0  501  503  0.00000000000E+00  0.00000000000E+00 -0.35555492370E+04  0.35555492370E+04  0.00000000000E+00 0.  1.
  1000006    1    1    2  501    0 -0.21332857123E+03 -0.63036696482E+03 -0.47533855150E+03  0.88956075014E+03  0.35000000000E+03 0.  0.
 -1000006    1    1    2    0  502 -0.56451963588E+02  0.51697995498E+03  0.66987145017E+03  0.91743275383E+03  0.35000000000E+03 0.  0.
       21    1    1    2  504  505  0.21231579209E+03  0.64709871281E+02  0.32677882519E+03  0.39503134509E+03  0.00000000000E+00 0.  1.
       21    1    1    2  505  503  0.57464742725E+02  0.48677138558E+02 -0.27146704592E+04  0.27157148897E+04  0.00000000000E+00 0.  1.
<scales pt_clust_1="13000.00000" pt_clust_2="13000.00000" pt_clust_3="224.76981" pt_clust_4="75.31043"></scales>
<clustering>
<clus scale="   75.310">  2  6  1 -1</clus>
<clus scale="  224.770">  1  5  2 -1</clus>
<clus scale="  687.844">  1  4  2 -1</clus>
<clus scale="  687.844">  1  3  2 -1</clus>
</clustering>
</event>
<event>
 4   0  0.3464723E-02  0.4509750E+03  0.7816531E-02  0.1027432E+00
       21   -1    0    0  503  502  0.00000000000E+00  0.00000000000E+00  0.43391385199E+03  0.43391385199E+03  0.00000000000E+00 0. -1.
       21   -1    0    0  501  503  0.00000000000E+00  0.00000000000E+00 -0.69072510381E+03  0.69072510381E+03  0.00000000000E+00 0. -1.
  1000006    1    1    2  501    0 -0.28277806582E+03  0.30248778855E+02 -0.44721037642E+03  0.63511852745E+03  0.35000000000E+03 0.  0.
 -1000006    1    1    2    0  502  0.28277806582E+03 -0.30248778855E+02  0.19039912459E+03  0.48952042835E+03  0.35000000000E+03 0.  0.
<scales pt_clust_1="13000.00000" pt_clust_2="13000.00000"></scales>
<clustering>
<clus scale="  450.975">  2  3  1 -1</clus>
<clus scale="  450.975">  1  3  2 -1</clus>
</clustering>
</event>
<event>
 6   2  0.3464723E-02  0.3558001E+03  0.7816531E-02  0.1060259E+00
       21   -1    0    0  501  503  0.00000000000E+00  0.00000000000E+00  0.10931347388E+04  0.10931347388E+04  0.00000000000E+00 0. -1.
        2   -1    0    0  504    0  0.00000000000E+00  0.00000000000E+00 -0.14616917542E+04  0.14616917542E+04  0.00000000000E+00 0.  1.
  1000006    1    1    2  501    0  0.70644333250E+02 -0.11030216527E+01  0.60700547507E+03  0.70423539050E+03  0.35000000000E+03 0.  0.
 -1000006    1    1    2    0  502 -0.29236871540E+02  0.52282778999E+02  0.20332620919E+03  0.40918190451E+03  0.35000000000E+03 0.  0.
       21    1    1    2  504  503  0.54503537070E+00 -0.30152167907E+02  0.12910175558E+03  0.13257719859E+03  0.00000000000E+00 0.  1.
        2    1    1    2  502    0 -0.41952497081E+02 -0.21027589439E+02 -0.13079904553E+04  0.13088319994E+04  0.00000000000E+00 0.  1.
<scales pt_clust_1="13000.00000" pt_clust_2="13000.00000" pt_clust_3="30.15709" pt_clust_4="46.93300"></scales>
<clustering>
<clus scale="   30.157">  1  5  2 -1</clus>
<clus scale="   46.933">  2  6  1 -1</clus>
<clus scale="  355.800">  2  4  1 -1</clus>
<clus scale="  355.800">  1  3  2 -1</clus>
</clustering>
</event>
<event>
 4   0  0.3464723E-02  0.4834387E+03  0.7816531E-02  0.1018194E+00
       21   -1    0    0  503  502  0.00000000000E+00  0.00000000000E+00  0.18875486210E+03  0.18875486210E+03  0.00000000000E+00 0. -1.
       21   -1    0    0  501  503  0.00000000000E+00  0.00000000000E+00 -0.17228210059E+04  0.17228210059E+04  0.00000000000E+00 0.  1.
  1000006    1    1    2  501    0 -0.30317536183E+03 -0.13891598081E+03 -0.12739659557E+04  0.13626086034E+04  0.35000000000E+03 0.  0.
 -1000006    1    1    2    0  502  0.30317536183E+03  0.13891598081E+03 -0.26010018806E+03  0.54896726457E+03  0.35000000000E+03 0.  0.
<scales pt_clust_1="13000.00000" pt_clust_2="13000.00000"></scales>
<clustering>
<clus scale="  483.439">  2  3  1 -1</clus>
<clus scale="  483.439">  1  3  2 -1</clus>
</clustering>
</event>
<event>
 6   2  0.3464723E-02  0.3820056E+03  0.7816531E-02  0.1050195E+00
       21   -1    0    0  504  503  0.00000000000E+00  0.00000000000E+00  0.66389062070E+03  0.66389062070E+03  0.00000000000E+00 0.  1.
        2   -1    0    0  501    0  0.00000000000E+00  0.00000000000E+00 -0.11753760998E+04  0.11753760998E+04  0.00000000000E+00 0. -1.
  1000006    1    1    2  501    0  0.18647904452E+03  0.74643959950E+02 -0.42167703311E+02  0.40573916499E+03  0.35000000000E+03 0.  0.
 -1000006    1    1    2    0  503 -0.14041966696E+03  0.10197213574E+02  0.36275867516E+03  0.52336939387E+03  0.35000000000E+03 0.  0.
       21    1    1    2  504  502  0.61882388273E+02 -0.94237804411E+02 -0.54775105942E+02  0.12534155731E+03  0.00000000000E+00 0.  1.
        2    1    1    2  502    0 -0.10794176583E+03  0.93966308877E+01 -0.77730134497E+03  0.78481660430E+03  0.00000000000E+00 0. -1.
<scales pt_clust_1="13000.00000" pt_clust_2="13000.00000" pt_clust_3="99.33236" pt_clust_4="108.35000"></scales>
<clustering>
<clus scale="  108.350">  2  6  1 -1</clus>
<clus scale="   99.332">  2  5  1 -1</clus>
<clus scale="  382.006">  2  3  1 -1</clus>
<clus scale="  382.006">  1  3  2 -1</clus>
</clustering>
</event>
<event>
 5   1  0.3464723E-02  0.4270932E+03  0.7816531E-02  0.1034782E+00
       21   -1    0    0  503  502  0.00000000000E+00  0.00000000000E+00  0.68103020593E+03  0.68103020593E+03  0.00000000000E+00 0.  1.
       21   -1    0    0  504  503  0.00000000000E+00  0.00000000000E+00 -0.40261791807E+03  0.40261791807E+03  0.00000000000E+00 0.  1.
  1000006    1    1    2  501    0 -0.16600501037E+03 -0.20194616695E+03  0.25230337530E+02  0.43758026434E+03  0.35000000000E+03 0.  0.
 -1000006    1    1    2    0  502  0.21568548071E+03  0.11219103593E+03  0.31168444014E+03  0.52797182251E+03  0.35000000000E+03 0.  0.
       21    1    1    2  504  501 -0.49680470348E+02  0.89755131022E+02 -0.58502489813E+02  0.11809603716E+03  0.00000000000E+00 0. -1.
<scales pt_clust_1="13000.00000" pt_clust_2="13000.00000" pt_clust_3="102.58720"></scales>
<clustering>
<clus scale="  102.587">  2  5  1 -1</clus>
<clus scale="  427.093">  2  3  1 -1</clus>
<clus scale="  427.093">  1  3  2 -1</clus>
</clustering>
</event>
<event>
 4   0  0.3464723E-02  0.4338497E+03  0.7816531E-02  0.1032651E+00
       21   -1    0    0  503  502  0.00000000000E+00  0.00000000000E+00  0.17606337476E+04  0.17606337476E+04  0.00000000000E+00 0.  1.
       21   -1    0    0  501  503  0.00000000000E+00  0.00000000000E+00 -0.13319308374E+03  0.13319308374E+03  0.00000000000E+00 0.  1.
  1000006    1    1    2  501    0 -0.46972371517E+02  0.25203001944E+03  0.39306585558E+03  0.58542830578E+03  0.35000000000E+03 0.  0.
 -1000006    1    1    2    0  502  0.46972371517E+02 -0.25203001944E+03  0.12343748082E+04  0.13083985255E+04  0.35000000000E+03 0.  0.
<scales pt_clust_1="13000.00000" pt_clust_2="13000.00000"></scales>
<clustering>
<clus scale="  433.850">  2  3  1 -1</clus>
<clus scale="  433.850">  1  3  2 -1</clus>
</clustering>
</event>
<event>
 5   1  0.3464723E-02  0.6938387E+03  0.7816531E-02  0.9727827E-01
       21   -1    0    0  503  502  0.00000000000E+00  0.00000000000E+00  0.72638351268E+03  0.72638351268E+03  0.00000000000E+00 0.  1.
       21   -1    0    0  504  503  0.00000000000E+00  0.00000000000E+00 -0.10168186294E+04  0.10168186294E+04  0.00000000000E+00 0. -1.
  1000006    1    1    2  501    0 -0.11383971205E+03  0.56987506090E+03 -0.37529415395E+03  0.77528237892E+03  0.35000000000E+03 0.  0.
 -1000006    1    1    2    0  502  0.62942077133E+02 -0.60391055215E+03  0.28654010259E+03  0.75714918640E+03  0.35000000000E+03 0.  0.
       21    1    1    2  504  501  0.50897634916E+02  0.34035491250E+02 -0.20168106537E+03  0.21077057677E+03  0.00000000000E+00 0. -1.
<scales pt_clust_1="13000.00000" pt_clust_2="13000.00000" pt_clust_3="61.22895"></scales>
<clustering>
<clus scale="   61.229">  2  5  1 -1</clus>
<clus scale="  693.839">  2  3  1 -1</clus>
<clus scale="  693.839">  1  3  2 -1</clus>
</clustering>
</event>
<event>
 5   1  0.3464723E-02  0.3789336E+03  0.7816531E-02  0.1051329E+00
       21   -1    0    0  503  502  0.00000000000E+00  0.00000000000E+00  0.83942562863E+03  0.83942562863E+03  0.00000000000E+00 0.  1.
       21   -1    0    0  504  503  0.00000000000E+00  0.00000000000E+00 -0.27374077637E+03  0.27374077637E+03  0.00000000000E+00 0.  1.
  1000006    1    1    2  501    0 -0.13366970738E+03 -0.11073088440E+03  0.34901829074E+03  0.52387277721E+03  0.35000000000E+03 0.  0.
 -1000006    1    1    2    0  502  0.75295678672E+02  0.91320884873E+02  0.30674776736E+03  0.48021155340E+03  0.35000000000E+03 0.  0.
       21    1    1    2  504  501  0.58374028705E+02  0.19409999528E+02 -0.90081205839E+02  0.10908207439E+03  0.00000000000E+00 0.  1.
<scales pt_clust_1="13000.00000" pt_clust_2="13000.00000" pt_clust_3="61.51646"></scales>
<clustering>
<clus scale="   61.516">  2  5  1 -1</clus>
<clus scale="  378.934">  2  3  1 -1</clus>
<clus scale="  378.934">  1  3  2 -1</clus>
</clustering>
</event>
<event>
 5   1  0.3464723E-02  0.4149155E+03  0.7816531E-02  0.1038734E+00
       21   -1    0    0  504  502  0.00000000000E+00  0.00000000000E+00  0.62869249303E+03  0.62869249303E+03  0.00000000000E+00 0. -1.
       21   -1    0    0  501  503  0.00000000000E+00  0.00000000000E+00 -0.89611964437E+03  0.89611964437E+03  0.00000000000E+00 0. -1.
  1000006    1    1    2  501    0  0.23739669310E+03  0.37108032604E+03 -0.19639216664E+03  0.59592590260E+03  0.35000000000E+03 0.  0.
 -1000006    1    1    2    0  502 -0.26474436851E+02 -0.17095891410E+03  0.27452818164E+03  0.47727724504E+03  0.35000000000E+03 0.  0.
       21    1    1    2  504  503 -0.21092225625E+03 -0.20012141194E+03 -0.34556316634E+03  0.45160898976E+03  0.00000000000E+00 0. -1.
<scales pt_clust_1="13000.00000" pt_clust_2="13000.00000" pt_clust_3="290.75209"></scales>
<clustering>
<clus scale="  290.752">  2  5  1 -1</clus>
<clus scale="  414.916">  2  3  1 -1</clus>
<clus scale="  414.916">  1  3  2 -1</clus>
</clustering>
</event>
<event>
 6   2  0.3464723E-02  0.3755961E+03  0.7816531E-02  0.1052574E+00
       21   -1    0    0  504  503  0.00000000000E+00  0.00000000000E+00  0.37611972142E+03  0.37611972142E+03  0.00000000000E+00 0. -1.
        1   -1    0    0  503    0  0.00000000000E+00  0.00000000000E+00 -0.28227365560E+04  0.28227365560E+04  0.00000000000E+00 0.  1.
  1000006    1    1    2  501    0  0.14320883285E+03  0.80874835800E+02  0.34885954714E+01  0.38673205087E+03  0.35000000000E+03 0.  0.
 -1000006    1    1    2    0  502 -0.17261498156E+02 -0.13511657784E+03 -0.60784960136E+02  0.38045927549E+03  0.35000000000E+03 0.  0.
       21    1    1    2  504  501  0.48497281147E+02 -0.22113508516E+02 -0.23598246626E+02  0.58291258190E+02  0.00000000000E+00 0. -1.
        1    1    1    2  502    0 -0.17444461584E+03  0.76355250560E+02 -0.23657222233E+04  0.23733736929E+04  0.00000000000E+00 0.  1.
<scales pt_clust_1="13000.00000" pt_clust_2="13000.00000" pt_clust_3="53.30097" pt_clust_4="189.85504"></scales>
<clustering>
<clus scale="   53.301">  1  5  2 -1</clus>
<clus scale="  189.855">  2  6  1 -1</clus>
<clus scale="  375.596">  2  4  1 -1</clus>
<clus scale="  375.596">  1  3  2 -1</clus>
</clustering>
</event>
<event>
 5   1  0.3464723E-02  0.3571336E+03  0.7816531E-02  0.1059725E+00
        2   -1    0    0  503    0  0.00000000000E+00  0.00000000000E+00  0.27549535857E+04  0.27549535857E+04  0.00000000000E+00 0.  1.
       21   -1    0    0  501  503  0.00000000000E+00  0.00000000000E+00 -0.54168797655E+03  0.54168797655E+03  0.00000000000E+00 0. -1.
  1000006    1    1    2  501    0 -0.69305528974E+02 -0.82814102572E+02 -0.36637502020E+03  0.51806571722E+03  0.35000000000E+03 0.  0.
 -1000006    1    1    2    0  502 -0.19790136202E+02 -0.14972548735E+03  0.29923654071E+03  0.48461518584E+03  0.35000000000E+03 0.  0.
        2    1    1    2  502    0  0.89095665176E+02  0.23253958992E+03  0.22804040886E+04  0.22939606592E+04  0.00000000000E+00 0.  1.
<scales pt_clust_1="13000.00000" pt_clust_2="13000.00000" pt_clust_3="249.02349"></scales>
<clustering>
<clus scale="  249.023">  1  5  2 -1</clus>
<clus scale="  357.134">  2  3  1 -1</clus>
<clus scale="  357.134">  2  3  1 -1</clus>
</clustering>
</event>
<event>
 6   2  0.3464723E-02  0.3549191E+03  0.7816531E-02  0.1060614E+00
       21   -1    0    0  504  502  0.00000000000E+00  0.00000000000E+00  0.13831908691E+04  0.13831908691E+04  0.00000000000E+00 0. -1.
       21   -1    0    0  505  503  0.00000000000E+00  0.00000000000E+00 -0.31117572223E+03  0.31117572223E+03  0.00000000000E+00 0. -1.
  1000006    1    1    2  501    0 -0.57295899705E+02 -0.16057388003E+02  0.47140216557E+03  0.59013613814E+03  0.35000000000E+03 0.  0.
 -1000006    1    1    2    0  502 -0.85521087518E+01  0.82602683514E+02  0.78961894936E+03  0.86769489285E+03  0.35000000000E+03 0.  0.
       21    1    1    2  504  503  0.95099655949E+01 -0.77819742612E+02 -0.73196381381E+02  0.10725699060E+03  0.00000000000E+00 0. -1.
       21    1    1    2  505  501  0.56338042862E+02  0.11274447102E+02 -0.11580958667E+03  0.12927856974E+03  0.00000000000E+00 0. -1.
<scales pt_clust_1="13000.00000" pt_clust_2="13000.00000" pt_clust_3="81.08528" pt_clust_4="57.45510"></scales>
<clustering>
<clus scale="   57.455">  2  6  1 -1</clus>
<clus scale="   81.085">  2  5  1 -1</clus>
<clus scale="  354.919">  1  4  2 -1</clus>
<clus scale="  354.919">  1  3  2 -1</clus>
</clustering>
</event>
<event>
 4   0  0.3464723E-02  0.3697810E+03  0.7816531E-02  0.1054777E+00
       21   -1    0    0  501  502  0.00000000000E+00  0.00000000000E+00  0.27590710505E+03  0.27590710505E+03  0.00000000000E+00 0.  1.
       21   -1    0    0  502  503  0.00000000000E+00  0.00000000000E+00 -0.49755358752E+03  0.49755358752E+03  0.00000000000E+00 0.  1.
  1000006    1    1    2  501    0  0.41155481820E+02  0.11200085073E+03 -0.86554503639E+02  0.37977578431E+03  0.35000000000E+03 0.  0.
 -1000006    1    1    2    0  503 -0.41155481820E+02 -0.11200085073E+03 -0.13509197883E+03  0.39368490826E+03  0.35000000000E+03 0.  0.
<scales pt_clust_1="13000.00000" pt_clust_2="13000.00000"></scales>
<clustering>
<clus scale="  369.781">  1  3  2 -1</clus>
<clus scale="  369.781">  1  3  2 -1</clus>
</clustering>
</event>
<event>
 4   0  0.3464723E-02  0.3593151E+03  0.7816531E-02  0.1058855E+00
       21   -1    0    0  503  502  0.00000000000E+00  0.00000000000E+00  0.37255777117E+03  0.37255777117E+03  0.00000000000E+00 0. -1.
       21   -1    0    0  501  503  0.00000000000E+00  0.00000000000E+00 -0.35724712957E+03  0.35724712957E+03  0.00000000000E+00 0. -1.
  1000006    1    1    2  501    0 -0.81274861233E+02  0.13299030317E+01 -0.55507789808E+02  0.36357734588E+03  0.35000000000E+03 0.  0.
 -1000006    1    1    2    0  502  0.81274861233E+02 -0.13299030317E+01  0.70818431408E+02  0.36622755486E+03  0.35000000000E+03 0.  0.
<scales pt_clust_1="13000.00000" pt_clust_2="13000.00000"></scales>
<clustering>
<clus scale="  359.315">  2  3  1 -1</clus>
<clus scale="  359.315">  1  3  2 -1</clus>
</clustering>
</event>
<event>
 4   0  0.3464723E-02  0.3612713E+03  0.7816531E-02  0.1058082E+00
       21   -1    0    0  501  502  0.00000000000E+00  0.00000000000E+00  0.65390915875E+03  0.65390915875E+03  0.00000000000E+00 0. -1.
       21   -1    0    0  502  503  0.00000000000E+00  0.00000000000E+00 -0.22511543067E+03  0.22511543067E+03  0.00000000000E+00 0. -1.
  1000006    1    1    2  501    0  0.20196568665E+02 -0.87229747545E+02  0.36238036040E+03  0.51169957578E+03  0.35000000000E+03 0.  0.
 -1000006    1    1    2    0  503 -0.20196568665E+02  0.87229747545E+02  0.66413367671E+02  0.36732501364E+03  0.35000000000E+03 0.  0.
<scales pt_clust_1="13000.00000" pt_clust_2="13000.00000"></scales>
<clustering>
<clus scale="  361.271">  1  3  2 -1</clus>
<clus scale="  361.271">  1  3  2 -1</clus>
</clustering>
</event>
<event>
 4   0  0.3464723E-02  0.4219613E+03  0.7816531E-02  0.1036430E+00
        2   -1    0    0  502    0  0.00000000000E+00  0.00000000000E+00  0.59159126128E+03  0.59159126128E+03  0.00000000000E+00 0. -1.
       -2   -1    0    0    0  501  0.00000000000E+00  0.00000000000E+00 -0.31084427714E+03  0.31084427714E+03  0.00000000000E+00 0.  1.
  1000006    1    1    2  502    0  0.98943888892E+02  0.21391923941E+03  0.22079333861E+03  0.47623632003E+03  0.35000000000E+03 0.  0.
 -1000006    1    1    2    0  501 -0.98943888892E+02 -0.21391923941E+03  0.59953645530E+02  0.42619921838E+03  0.35000000000E+03 0.  0.
<scales pt_clust_1="13000.00000" pt_clust_2="13000.00000"></scales>
<clustering>
<clus scale="  606.689">  3  4 -1 -1</clus>
<clus scale="  421.961">  1  3  2 -1</clus>
</clustering>
</event>
<event>
 5   1  0.3464723E-02  0.3688269E+03  0.7816531E-02  0.1055142E+00
       21   -1    0    0  504  502  0.00000000000E+00  0.00000000000E+00  0.16469321085E+04  0.16469321085E+04  0.00000000000E+00 0. -1.
       21   -1    0    0  501  503  0.00000000000E+00  0.00000000000E+00 -0.97045000576E+02  0.97045000576E+02  0.00000000000E+00 0. -1.
  1000006    1    1    2  501    0 -0.11286815639E+03  0.40121336643E+02  0.59916611493E+03  0.70416544623E+03  0.35000000000E+03 0.  0.
 -1000006    1    1    2    0  502  0.11731047553E+03  0.41784149531E+01  0.89729311810E+03  0.97026498783E+03  0.35000000000E+03 0.  0.
       21    1    1    2  504  503 -0.44423191346E+01 -0.44299751596E+02  0.53427874910E+02  0.69546675033E+02  0.00000000000E+00 0.  1.
<scales pt_clust_1="13000.00000" pt_clust_2="13000.00000" pt_clust_3="44.52193"></scales>
<clustering>
<clus scale="   44.522">  2  5  1 -1</clus>
<clus scale="  368.827">  2  3  1 -1</clus>
<clus scale="  368.827">  1  3  2 -1</clus>
</clustering>
</event>
<event>
 4   0  0.3464723E-02  0.3871110E+03  0.7816531E-02  0.1048336E+00
       21   -1    0    0  503  502  0.00000000000E+00  0.00000000000E+00  0.16905822770E+03  0.16905822770E+03  0.00000000000E+00 0. -1.
       21   -1    0    0  501  503  0.00000000000E+00  0.00000000000E+00 -0.10582008540E+04  0.10582008540E+04  0.00000000000E+00 0. -1.
  1000006    1    1    2  501    0 -0.14471416171E+03 -0.80079620127E+02 -0.69181316970E+03  0.79275494065E+03  0.35000000000E+03 0.  0.
 -1000006    1    1    2    0  502  0.14471416171E+03  0.80079620127E+02 -0.19732945664E+03  0.43450414108E+03  0.35000000000E+03 0.  0.
<scales pt_clust_1="13000.00000" pt_clust_2="13000.00000"></scales>
<clustering>
<clus scale="  387.111">  2  3  1 -1</clus>
<clus scale="  387.111">  1  3  2 -1</clus>
</clustering>
</event>
<event>
 5   1  0.3464723E-02  0.5215363E+03  0.7816531E-02  0.1008306E+00
       -1   -1    0    0    0  501  0.00000000000E+00  0.00000000000E+00  0.15217339794E+03  0.15217339794E+03  0.00000000000E+00 0.  1.
        1   -1    0    0  502    0  0.00000000000E+00  0.00000000000E+00 -0.21463960958E+04  0.21463960958E+04  0.00000000000E+00 0. -1.
  1000006    1    1    2  502    0 -0.15475251708E+03  0.36975857337E+03 -0.11628873916E+04  0.12788576268E+04  0.35000000000E+03 0.  0.
 -1000006    1    1    2    0  503  0.94928301766E+02 -0.35825435887E+03 -0.80612911451E+03  0.95378284603E+03  0.35000000000E+03 0.  0.
       21    1    1    2  503  501  0.59824215312E+02 -0.11504214498E+02 -0.25206191711E+02  0.65929020844E+02  0.00000000000E+00 0. -1.
<scales pt_clust_1="13000.00000" pt_clust_2="13000.00000" pt_clust_3="60.92031"></scales>
<clustering>
<clus scale="   60.920">  1  5  2 -1</clus>
<clus scale="  858.164">  3  4 -1 -1</clus>
<clus scale="  521.536">  2  3  1 -1</clus>
</clustering>
</event>
<event>
 5   1  0.3464723E-02  0.3933713E+03  0.7816531E-02  0.1046099E+00
       21   -1    0    0  501  503  0.00000000000E+00  0.00000000000E+00  0.32612615893E+03  0.32612615893E+03  0.00000000000E+00 0. -1.
        2   -1    0    0  503    0  0.00000000000E+00  0.00000000000E+00 -0.12422032595E+04  0.12422032595E+04  0.00000000000E+00 0. -1.
  1000006    1    1    2  501    0  0.71787533027E+02 -0.17513579831E+03  0.57064955713E+02  0.40197314203E+03  0.35000000000E+03 0.  0.
 -1000006    1    1    2    0  502  0.38936634702E+02  0.17513448023E+03 -0.32899734443E+03  0.51276446867E+03  0.35000000000E+03 0.  0.
        2    1    1    2  502    0 -0.11072416773E+03  0.13180777966E-02 -0.64414471185E+03  0.65359180772E+03  0.00000000000E+00 0. -1.
<scales pt_clust_1="13000.00000" pt_clust_2="13000.00000" pt_clust_3="110.72417"></scales>
<clustering>
<clus scale="  110.724">  2  5  1 -1</clus>
<clus scale="  393.371">  1  3  2 -1</clus>
<clus scale="  393.371">  1  3  2 -1</clus>
</clustering>
</event>
<event>
 6   2  0.3464723E-02  0.3543318E+03  0.7816531E-02  0.1060851E+00
       21   -1    0    0  501  502  0.00000000000E+00  0.00000000000E+00  0.38672297850E+03  0.38672297850E+03  0.00000000000E+00 0.  1.
       21   -1    0    0  504  503  0.00000000000E+00  0.00000000000E+00 -0.79777761702E+03  0.79777761702E+03  0.00000000000E+00 0.  1.
  1000006    1    1    2  501    0 -0.17923606127E+02 -0.63840952724E+02  0.10997643043E+03  0.37281595748E+03  0.35000000000E+03 0.  0.
 -1000006    1    1    2    0  505  0.45983796016E+02  0.18232908122E+02 -0.10965460691E+03  0.37009604328E+03  0.35000000000E+03 0.  0.
       21    1    1    2  504  502 -0.20805195166E+02  0.77452918683E+02 -0.98536001793E+02  0.12704784299E+03  0.00000000000E+00 0.  1.
       21    1    1    2  505  503 -0.72549947234E+01 -0.31844874082E+02 -0.31284046026E+03  0.31454075178E+03  0.00000000000E+00 0.  1.
<scales pt_clust_1="13000.00000" pt_clust_2="13000.00000" pt_clust_3="73.55736" pt_clust_4="32.66085"></scales>
<clustering>
<clus scale="   32.661">  2  6  1 -1</clus>
<clus scale="   73.557">  2  5  1 -1</clus>
<clus scale="  354.332">  2  4  1 -1</clus>
<clus scale="  354.332">  1  3  2 -1</clus>
</clustering>
</event>
<event>
 6   2  0.3464723E-02  0.3736283E+03  0.7816531E-02  0.1053314E+00
       21   -1    0    0  502  503  0.00000000000E+00  0.00000000000E+00  0.16994363305E+03  0.16994363305E+03  0.00000000000E+00 0.  1.
       21   -1    0    0  501  504  0.00000000000E+00  0.00000000000E+00 -0.19835930685E+04  0.19835930685E+04  0.00000000000E+00 0.  1.
  1000006    1    1    2  501    0 -0.51683240161E+02  0.61704063666E+02 -0.14090241221E+03  0.38578755624E+03  0.35000000000E+03 0.  0.
 -1000006    1    1    2    0  503  0.85303450343E+02 -0.14219238594E+03 -0.13492509150E+04  0.14037355111E+04  0.35000000000E+03 0.  0.
        1    1    1    2  502    0  0.25182404461E+02  0.75026319571E+02 -0.76550862044E+02  0.11010511615E+03  0.00000000000E+00 0. -1.
       -1    1    1    2    0  504 -0.58802614643E+02  0.54620026998E+01 -0.24694524613E+03  0.25390851807E+03  0.00000000000E+00 0.  1.
<scales pt_clust_1="13000.00000" pt_clust_2="13000.00000" pt_clust_3="78.47211" pt_clust_4="59.05574"></scales>
<clustering>
<clus scale="   59.056">  2  6  1 -1</clus>
<clus scale="   78.472">  1  5  2 -1</clus>
<clus scale="  778.927">  3  4 -1 -1</clus>
<clus scale="  373.628">  1  3  2 -1</clus>
</clustering>
</event>
<event>
 5   1  0.3464723E-02  0.5021326E+03  0.7816531E-02  0.1013224E+00
        2   -1    0    0  501    0  0.00000000000E+00  0.00000000000E+00  0.96524737099E+03  0.96524737099E+03  0.00000000000E+00 0.  1.
       21   -1    0    0  502  503  0.00000000000E+00  0.00000000000E+00 -0.17859620800E+04  0.17859620800E+04  0.00000000000E+00 0. -1.
  1000006    1    1    2  501    0 -0.23680977153E+03  0.25692777920E+03 -0.44371457413E+02  0.49654765919E+03  0.35000000000E+03 0.  0.
 -1000006    1    1    2    0  503  0.22244768776E+03 -0.28585731218E+03 -0.14732678087E+04  0.15569892141E+04  0.35000000000E+03 0.  0.
        2    1    1    2  502    0  0.14362083761E+02  0.28929532974E+02  0.69692455712E+03  0.69767257767E+03  0.00000000000E+00 0.  1.
<scales pt_clust_1="13000.00000" pt_clust_2="13000.00000" pt_clust_3="32.29841"></scales>
<clustering>
<clus scale="   32.298">  1  5  2 -1</clus>
<clus scale="  502.133">  1  3  2 -1</clus>
<clus scale="  502.133">  2  3  1 -1</clus>
</clustering>
</event>
<event>
 5   1  0.3464723E-02  0.8774638E+03  0.7816531E-02  0.9623990E-01
        2   -1    0    0  503    0  0.00000000000E+00  0.00000000000E+00  0.40937771773E+04  0.40937771773E+04  0.00000000000E+00 0. -1.
       21   -1    0    0  501  503  0.00000000000E+00  0.00000000000E+00 -0.40543573300E+03  0.40543573300E+03  0.00000000000E+00 0. -1.
  1000006    1    1    2  501    0 -0.28350493253E+03  0.18465564324E+03  0.21167964272E+04  0.21720496927E+04  0.35000000000E+03 0.  0.
 -1000006    1    1    2    0  502  0.40119184486E+03 -0.86373388520E+03  0.10714889704E+04  0.14756624731E+04  0.35000000000E+03 0.  0.
        2    1    1    2  502    0 -0.11768691234E+03  0.67907824196E+03  0.50005604669E+03  0.85150074450E+03  0.00000000000E+00 0. -1.
<scales pt_clust_1="13000.00000" pt_clust_2="13000.00000" pt_clust_3="804.63824"></scales>
<clustering>
<clus scale="  486.799">  2  3  1 -1</clus>
<clus scale="  804.638">  1  5  2 -1</clus>
<clus scale="  877.464">  2  3  1 -1</clus>
</clustering>
</event>
<event>
 4   0  0.3464723E-02  0.3615060E+03  0.7816531E-02  0.1057989E+00
       21   -1    0    0  501  502  0.00000000000E+00  0.00000000000E+00  0.15704432961E+03  0.15704432961E+03  0.00000000000E+00 0.  1.
       21   -1    0    0  502  503  0.00000000000E+00  0.00000000000E+00 -0.86642853852E+03  0.86642853852E+03  0.00000000000E+00 0.  1.
  1000006    1    1    2  501    0  0.13614232479E+02  0.89449845575E+02 -0.25292602931E+03  0.44120085959E+03  0.35000000000E+03 0.  0.
 -1000006    1    1    2    0  503 -0.13614232479E+02 -0.89449845575E+02 -0.45645817961E+03  0.58227200854E+03  0.35000000000E+03 0.  0.
<scales pt_clust_1="13000.00000" pt_clust_2="13000.00000"></scales>
<clustering>
<clus scale="  361.506">  1  3  2 -1</clus>
<clus scale="  361.506">  1  3  2 -1</clus>
</clustering>
</event>
<event>
 6   2  0.3464723E-02  0.4668285E+03  0.7816531E-02  0.1022819E+00
        2   -1    0    0  504    0  0.00000000000E+00  0.00000000000E+00  0.11944483509E+04  0.11944483509E+04  0.00000000000E+00 0.  1.
       21   -1    0    0  501  503  0.00000000000E+00  0.00000000000E+00 -0.17534050030E+04  0.17534050030E+04  0.00000000000E+00 0.  1.
  1000006    1    1    2  501    0 -0.29888270946E+02 -0.24754031325E+03 -0.11615551328E+04  0.12384990278E+04  0.35000000000E+03 0.  0.
 -1000006    1    1    2    0  502 -0.26506856180E+03  0.40403996716E+03  0.55615898302E+03  0.81567300550E+03  0.35000000000E+03 0.  0.
       21    1    1    2  504  503  0.10106530702E+02 -0.63225600450E+02 -0.37283193975E+03  0.37828993353E+03  0.00000000000E+00 0.  1.
        2    1    1    2  502    0  0.28485030204E+03 -0.93274053455E+02  0.41927143739E+03  0.51539138704E+03  0.00000000000E+00 0.  1.
<scales pt_clust_1="13000.00000" pt_clust_2="13000.00000" pt_clust_3="64.02826" pt_clust_4="300.76065"></scales>
<clustering>
<clus scale="   64.028">  2  5  1 -1</clus>
<clus scale="  300.761">  1  6  2 -1</clus>
<clus scale="  466.829">  2  3  1 -1</clus>
<clus scale="  466.829">  2  3  1 -1</clus>
</clustering>
</event>
<event>
 6   2  0.3464723E-02  0.3706350E+03  0.7816531E-02  0.1054450E+00
       21   -1    0    0  501  502  0.00000000000E+00  0.00000000000E+00  0.22738070549E+04  0.22738070549E+04  0.00000000000E+00 0. -1.
       21   -1    0    0  505  503  0.00000000000E+00  0.00000000000E+00 -0.11987778047E+03  0.11987778047E+03  0.00000000000E+00 0. -1.
  1000006    1    1    2  501    0  0.28639917706E+02  0.85177187464E+02  0.13723374629E+04  0.14191143401E+04  0.35000000000E+03 0.  0.
 -1000006    1    1    2    0  503  0.51516096651E+02 -0.13479835358E+03  0.35301926521E+03  0.51763607482E+03  0.35000000000E+03 0.  0.
       21    1    1    2  504  502 -0.97768584558E+01  0.50049183897E+02  0.34000454622E+03  0.34380750315E+03  0.00000000000E+00 0. -1.
       21    1    1    2  505  504 -0.70379155901E+02 -0.42801778413E+00  0.88568000120E+02  0.11312691735E+03  0.00000000000E+00 0.  1.
<scales pt_clust_1="13000.00000" pt_clust_2="13000.00000" pt_clust_3="50.99517" pt_clust_4="70.92317"></scales>
<clustering>
<clus scale="   50.995">  1  5  2 -1</clus>
<clus scale="   70.923">  2  6  1 -1</clus>
<clus scale="  370.635">  1  3  2 -1</clus>
<clus scale="  370.635">  1  3  2 -1</clus>
</clustering>
</event>
<event>
 5   1  0.3464723E-02  0.5170108E+03  0.7816531E-02  0.1009432E+00
       21   -1    0    0  504  502  0.00000000000E+00  0.00000000000E+00  0.33669978827E+03  0.33669978827E+03  0.00000000000E+00 0. -1.
       21   -1    0    0  501  503  0.00000000000E+00  0.00000000000E+00 -0.13024048127E+04  0.13024048127E+04  0.00000000000E+00 0. -1.
  1000006    1    1    2  501    0 -0.33957808495E+03 -0.15808830133E+03 -0.78618668979E+03  0.93855990646E+03  0.35000000000E+03 0.  0.
 -1000006    1    1    2    0  502  0.34552059020E+03  0.18812752310E+03 -0.27937883047E+03  0.59609476941E+03  0.35000000000E+03 0.  0.
       21    1    1    2  504  503 -0.59425052511E+01 -0.30039221775E+02  0.99860495863E+02  0.10444992507E+03  0.00000000000E+00 0.  1.
<scales pt_clust_1="13000.00000" pt_clust_2="13000.00000" pt_clust_3="30.62137"></scales>
<clustering>
<clus scale="   30.621">  1  5  2 -1</clus>
<clus scale="  517.011">  2  3  1 -1</clus>
<clus scale="  517.011">  1  3  2 -1</clus>
</clustering>
</event>
<event>
 6   2  0.3464723E-02  0.4375686E+03  0.7816531E-02  0.1031495E+00
       21   -1    0    0  504  503  0.00000000000E+00  0.00000000000E+00  0.14168922271E+04  0.14168922271E+04  0.00000000000E+00 0. -1.
        1   -1    0    0  501    0  0.00000000000E+00  0.00000000000E+00 -0.44313303032E+03  0.44313303032E+03  0.00000000000E+00 0. -1.
  1000006    1    1    2  501    0  0.16851142613E+03  0.46144208195E+03  0.34796485370E+03  0.69635079891E+03  0.35000000000E+03 0.  0.
 -1000006    1    1    2    0  503 -0.10759614053E+03 -0.16477115080E+03  0.72609611852E+03  0.82972407156E+03  0.35000000000E+03 0.  0.
       21    1    1    2  504  502 -0.24074723630E+02 -0.25759243741E+03 -0.56897686642E+02  0.26489772153E+03  0.00000000000E+00 0. -1.
        1    1    1    2  502    0 -0.36840561962E+02 -0.39078493738E+02 -0.43404088794E+02  0.69052665427E+02  0.00000000000E+00 0. -1.
<scales pt_clust_1="13000.00000" pt_clust_2="13000.00000" pt_clust_3="44.96127" pt_clust_4="318.53165"></scales>
<clustering>
<clus scale="   44.961">  5  6 -1 -1</clus>
<clus scale="  318.532">  2  5  1 -1</clus>
<clus scale="  437.569">  1  4  2 -1</clus>
<clus scale="  437.569">  1  3  2 -1</clus>
</clustering>
</event>
<event>
 5   1  0.3464723E-02  0.6869685E+03  0.7816531E-02  0.9739781E-01
       21   -1    0    0  503  502  0.00000000000E+00  0.00000000000E+00  0.23217104613E+04  0.23217104613E+04  0.00000000000E+00 0.  1.
       21   -1    0    0  501  503  0.00000000000E+00  0.00000000000E+00 -0.93449066345E+03  0.93449066345E+03  0.00000000000E+00 0.  1.
  1000006    1    1    2  501    0 -0.37392680312E+03 -0.46794467005E+03 -0.33356527549E+03  0.76977870933E+03  0.35000000000E+03 0.  0.
 -1000006    1    1    2    0  504  0.31791012843E+03  0.48728767827E+03 -0.80880923616E+02  0.68378202299E+03  0.35000000000E+03 0.  0.
       21    1    1    2  504  502  0.56016674686E+02 -0.19343008223E+02  0.18016659970E+04  0.18026403924E+04  0.00000000000E+00 0.  1.
<scales pt_clust_1="13000.00000" pt_clust_2="13000.00000" pt_clust_3="59.26230"></scales>
<clustering>
<clus scale="   59.262">  1  5  2 -1</clus>
<clus scale="  686.969">  1  4  2 -1</clus>
<clus scale="  686.969">  1  3  2 -1</clus>
</clustering>
</event>
<event>
 5   1  0.3464723E-02  0.7135232E+03  0.7816531E-02  0.9694381E-01
       21   -1    0    0  501  502  0.00000000000E+00  0.00000000000E+00  0.85290889607E+03  0.85290889607E+03  0.00000000000E+00 0. -1.
       21   -1    0    0  504  503  0.00000000000E+00  0.00000000000E+00 -0.68904682083E+03  0.68904682083E+03  0.00000000000E+00 0.  1.
  1000006    1    1    2  501    0 -0.62834226314E+03  0.16643424679E+02  0.31250811570E+03  0.78438021750E+03  0.35000000000E+03 0.  0.
 -1000006    1    1    2    0  503  0.60993101854E+03  0.17446691226E+02 -0.13358199682E+03  0.71600585492E+03  0.35000000000E+03 0.  0.
       21    1    1    2  504  502  0.18411244601E+02 -0.34090115904E+02 -0.15064043641E+02  0.41569644465E+02  0.00000000000E+00 0.  1.
<scales pt_clust_1="13000.00000" pt_clust_2="13000.00000" pt_clust_3="38.74416"></scales>
<clustering>
<clus scale="   38.744">  2  5  1 -1</clus>
<clus scale="  713.523">  2  4  1 -1</clus>
<clus scale="  713.523">  1  3  2 -1</clus>
</clustering>
</event>
<event>
 4   0  0.3464723E-02  0.4085823E+03  0.7816531E-02  0.1040848E+00
       21   -1    0    0  503  502  0.00000000000E+00  0.00000000000E+00  0.12937097247E+04  0.12937097247E+04  0.00000000000E+00 0.  1.
       21   -1    0    0  501  503  0.00000000000E+00  0.00000000000E+00 -0.15148092010E+03  0.15148092010E+03  0.00000000000E+00 0.  1.
  1000006    1    1    2  501    0  0.88213455984E+02 -0.19146249199E+03  0.29298780909E+03  0.50277366272E+03  0.35000000000E+03 0.  0.
 -1000006    1    1    2    0  502 -0.88213455984E+02  0.19146249199E+03  0.84924099552E+03  0.94241698209E+03  0.35000000000E+03 0.  0.
<scales pt_clust_1="13000.00000" pt_clust_2="13000.00000"></scales>
<clustering>
<clus scale="  408.582">  2  3  1 -1</clus>
<clus scale="  408.582">  1  3  2 -1</clus>
</clustering>
</event>
<event>
 6   2  0.3464723E-02  0.4777667E+03  0.7816531E-02  0.1019751E+00
       21   -1    0    0  504  502  0.00000000000E+00  0.00000000000E+00  0.47276821735E+03  0.47276821735E+03  0.00000000000E+00 0.  1.
       21   -1    0    0  501  503  0.00000000000E+00  0.00000000000E+00 -0.93393201591E+03  0.93393201591E+03  0.00000000000E+00 0.  1.
  1000006    1    1    2  501    0  0.27325111460E+03 -0.13530522318E+03 -0.29025743307E+03  0.54746968181E+03  0.35000000000E+03 0.  0.
 -1000006    1    1    2    0  502 -0.39381613891E+03 -0.77250876366E+02 -0.16978311897E+03  0.55891426592E+03  0.35000000000E+03 0.  0.
       21    1    1    2  504  505  0.35741710194E+02 -0.11925427595E+02  0.42081873645E+02  0.56485128666E+02  0.00000000000E+00 0.  1.
       21    1    1    2  505  503  0.84823314115E+02  0.22448152715E+03 -0.43205120167E+02  0.24383115686E+03  0.00000000000E+00 0.  1.
<scales pt_clust_1="13000.00000" pt_clust_2="13000.00000" pt_clust_3="37.67872" pt_clust_4="240.48835"></scales>
<clustering>
<clus scale="   37.679">  1  5  2 -1</clus>
<clus scale="  240.488">  1  6  2 -1</clus>
<clus scale="  477.767">  1  4  2 -1</clus>
<clus scale="  477.767">  1  3  2 -1</clus>
</clustering>
</event>
<event>
 4   0  0.3464723E-02  0.3522442E+03  0.7816531E-02  0.1061698E+00
       21   -1    0    0  501  502  0.00000000000E+00  0.00000000000E+00  0.52643158127E+03  0.52643158127E+03  0.00000000000E+00 0.  1.
       21   -1    0    0  502  503  0.00000000000E+00  0.00000000000E+00 -0.42538083359E+03  0.42538083359E+03  0.00000000000E+00 0.  1.
  1000006    1    1    2  501    0  0.26745684702E+02 -0.29336821041E+02  0.36832450807E+03  0.50964588095E+03  0.35000000000E+03 0.  0.
 -1000006    1    1    2    0  503 -0.26745684702E+02  0.29336821041E+02 -0.26727376039E+03  0.44216653391E+03  0.35000000000E+03 0.  0.
<scales pt_clust_1="13000.00000" pt_clust_2="13000.00000"></scales>
<clustering>
<clus scale="  352.244">  1  3  2 -1</clus>
<clus scale="  352.244">  1  3  2 -1</clus>
</clustering>
</event>
<event>
 5   1  0.3464723E-02  0.4093550E+03  0.7816531E-02  0.1040588E+00
       21   -1    0    0  501  502  0.00000000000E+00  0.00000000000E+00  0.27018741400E+03  0.27018741400E+03  0.00000000000E+00 0.  1.
       21   -1    0    0  502  503  0.00000000000E+00  0.00000000000E+00 -0.20795968327E+04  0.20795968327E+04  0.00000000000E+00 0.  1.
  1000006    1    1    2  501    0 -0.20504476723E+03  0.71187455002E+02  0.66930873950E+02  0.41724183899E+03  0.35000000000E+03 0.  0.
 -1000006    1    1    2    0  504  0.17324014520E+03 -0.28247068743E+02 -0.14169088212E+04  0.14700138273E+04  0.35000000000E+03 0.  0.
       21    1    1    2  504  503  0.31804622029E+02 -0.42940386258E+02 -0.45943147149E+03  0.46252858047E+03  0.00000000000E+00 0.  1.
<scales pt_clust_1="13000.00000" pt_clust_2="13000.00000" pt_clust_3="53.43604"></scales>
<clustering>
<clus scale="   53.436">  2  5  1 -1</clus>
<clus scale="  409.355">  2  4  1 -1</clus>
<clus scale="  409.355">  1  3  2 -1</clus>
</clustering>
</event>
<event>
 5   1  0.3464723E-02  0.3652758E+03  0.7816531E-02  0.1056514E+00
       21   -1    0    0  504  502  0.00000000000E+00  0.00000000000E+00  0.35291271832E+04  0.35291271832E+04  0.00000000000E+00 0. -1.
       21   -1    0    0  501  503  0.00000000000E+00  0.00000000000E+00 -0.72326191666E+02  0.72326191666E+02  0.00000000000E+00 0. -1.
  1000006    1    1    2  501    0  0.42341114765E+02  0.93649121926E+02  0.74208538161E+03  0.82689397242E+03  0.35000000000E+03 0.  0.
 -1000006    1    1    2    0  502 -0.93685351896E+02 -0.56341637740E+02  0.26742908227E+04  0.26993115288E+04  0.35000000000E+03 0.  0.
       21    1    1    2  504  503  0.51344237132E+02 -0.37307484186E+02  0.40424787262E+02  0.75247873645E+02  0.00000000000E+00 0. -1.
<scales pt_clust_1="13000.00000" pt_clust_2="13000.00000" pt_clust_3="63.46715"></scales>
<clustering>
<clus scale="   63.467">  2  5  1 -1</clus>
<clus scale="  365.276">  2  3  1 -1</clus>
<clus scale="  365.276">  1  3  2 -1</clus>
</clustering>
</event>
<event>
 6   2  0.3464723E-02  0.3950889E+03  0.7816531E-02  0.1045494E+00
       21   -1    0    0  504  502  0.00000000000E+00  0.00000000000E+00  0.88518041654E+03  0.88518041654E+03  0.00000000000E+00 0.  1.
       21   -1    0    0  505  503  0.00000000000E+00  0.00000000000E+00 -0.39986835721E+03  0.39986835721E+03  0.00000000000E+00 0.  1.
  1000006    1    1    2  501    0  0.12290818060E+03 -0.14245446491E+03  0.31334234679E+03  0.50604656083E+03  0.35000000000E+03 0.  0.
 -1000006    1    1    2    0  503 -0.16601216482E+03  0.20246386833E+02 -0.82092110346E+02  0.39649598942E+03  0.35000000000E+03 0.  0.
       21    1    1    2  504  501  0.48088211424E+02  0.18192574573E+02  0.27201824789E+03  0.27683455895E+03  0.00000000000E+00 0.  1.
       21    1    1    2  505  502 -0.49842272036E+01  0.10401550351E+03 -0.17956425004E+02  0.10567166455E+03  0.00000000000E+00 0. -1.
<scales pt_clust_1="13000.00000" pt_clust_2="13000.00000" pt_clust_3="51.41445" pt_clust_4="105.33302"></scales>
<clustering>
<clus scale="   51.414">  1  5  2 -1</clus>
<clus scale="  105.333">  2  6  1 -1</clus>
<clus scale="  395.089">  2  4  1 -1</clus>
<clus scale="  395.089">  1  3  2 -1</clus>
</clustering>
</event>
<event>
 6   2  0.3464723E-02  0.3548683E+03  0.7816531E-02  0.1060634E+00
        2   -1    0    0  501    0  0.00000000000E+00  0.00000000000E+00  0.14708246980E+04  0.14708246980E+04  0.00000000000E+00 0.  1.
       21   -1    0    0  504  503  0.00000000000E+00  0.00000000000E+00 -0.25746428283E+03  0.25746428283E+03  0.00000000000E+00 0.  1.
  1000006    1    1    2  501    0  0.59910288259E+02  0.35021669496E+02  0.64013088000E+03  0.73285967518E+03  0.35000000000E+03 0.  0.
 -1000006    1    1    2    0  503 -0.26934876555E+02 -0.23144773644E+02  0.49516786351E+02  0.35526480300E+03  0.35000000000E+03 0.  0.
       21    1    1    2  504  502 -0.35719319211E+01 -0.37360528073E+02 -0.51451650313E+02  0.63685477744E+02  0.00000000000E+00 0.  1.
        2    1    1    2  502    0 -0.29403479783E+02  0.25483632222E+02  0.57516439909E+03  0.57647902487E+03  0.00000000000E+00 0.  1.
<scales pt_clust_1="13000.00000" pt_clust_2="13000.00000" pt_clust_3="37.53089" pt_clust_4="38.83844"></scales>
<clustering>
<clus scale="   37.531">  2  5  1 -1</clus>
<clus scale="   38.838">  1  6  2 -1</clus>
<clus scale="  354.868">  2  4  1 -1</clus>
<clus scale="  354.868">  2  3  1 -1</clus>
</clustering>
</event>
<event>
 4   0  0.3464723E-02  0.5569763E+03  0.7816531E-02  0.9998920E-01
       21   -1    0    0  501  502  0.00000000000E+00  0.00000000000E+00  0.71074185008E+03  0.71074185008E+03  0.00000000000E+00 0.  1.
       21   -1    0    0  502  503  0.00000000000E+00  0.00000000000E+00 -0.44862893790E+03  0.44862893790E+03  0.00000000000E+00 0. -1.
  1000006    1    1    2  501    0  0.42813155435E+03  0.66527973018E+02  0.22646082332E+03  0.60125460790E+03  0.35000000000E+03 0.  0.
 -1000006    1    1    2    0  503 -0.42813155435E+03 -0.66527973018E+02  0.35652088858E+02  0.55811618008E+03  0.35000000000E+03 0.  0.
<scales pt_clust_1="13000.00000" pt_clust_2="13000.00000"></scales>
<clustering>
<clus scale="  556.976">  1  3  2 -1</clus>
<clus scale="  556.976">  1  3  2 -1</clus>
</clustering>
</event>
<event>
 4   0  0.3464723E-02  0.4445661E+03  0.7816531E-02  0.1029355E+00
       21   -1    0    0  503  502  0.00000000000E+00  0.00000000000E+00  0.60604894227E+03  0.60604894227E+03  0.00000000000E+00 0. -1.
       21   -1    0    0  501  503  0.00000000000E+00  0.00000000000E+00 -0.39959682515E+03  0.39959682515E+03  0.00000000000E+00 0.  1.
  1000006    1    1    2  501    0  0.27192546436E+03  0.34576473276E+02 -0.11240283669E+03  0.45855576364E+03  0.35000000000E+03 0.  0.
 -1000006    1    1    2    0  502 -0.27192546436E+03 -0.34576473276E+02  0.31885495381E+03  0.54709000378E+03  0.35000000000E+03 0.  0.
<scales pt_clust_1="13000.00000" pt_clust_2="13000.00000"></scales>
<clustering>
<clus scale="  444.566">  2  3  1 -1</clus>
<clus scale="  444.566">  1  3  2 -1</clus>
</clustering>
</event>
<event>
 5   1  0.3464723E-02  0.3949677E+03  0.7816531E-02  0.1045536E+00
       21   -1    0    0  504  502  0.00000000000E+00  0.00000000000E+00  0.63536996780E+03  0.63536996780E+03  0.00000000000E+00 0.  1.
       21   -1    0    0  501  503  0.00000000000E+00  0.00000000000E+00 -0.28267185136E+03  0.28267185136E+03  0.00000000000E+00 0.  1.
  1000006    1    1    2  501    0 -0.17653274131E+03 -0.77673424567E+02  0.10805325653E+03  0.41397158826E+03  0.35000000000E+03 0.  0.
 -1000006    1    1    2    0  502  0.14856741001E+03  0.96574128917E+02  0.25602219373E+03  0.46845085268E+03  0.35000000000E+03 0.  0.
       21    1    1    2  504  503  0.27965331303E+02 -0.18900704350E+02 -0.11377333819E+02  0.35619378218E+02  0.00000000000E+00 0.  1.
<scales pt_clust_1="13000.00000" pt_clust_2="13000.00000" pt_clust_3="33.75346"></scales>
<clustering>
<clus scale="   33.753">  2  5  1 -1</clus>
<clus scale="  394.968">  2  3  1 -1</clus>
<clus scale="  394.968">  1  3  2 -1</clus>
</clustering>
</event>
<event>
 5   1  0.3464723E-02  0.4591054E+03  0.7816531E-02  0.1025041E+00
       21   -1    0    0  503  502  0.00000000000E+00  0.00000000000E+00  0.30621136336E+03  0.30621136336E+03  0.00000000000E+00 0. -1.
       21   -1    0    0  504  503  0.00000000000E+00  0.00000000000E+00 -0.88099013491E+03  0.88099013491E+03  0.00000000000E+00 0.  1.
  1000006    1    1    2  501    0  0.10988028717E+03  0.29581157915E+03 -0.29210725006E+03  0.55444099181E+03  0.35000000000E+03 0.  0.
 -1000006    1    1    2    0  502 -0.10003678430E+03 -0.26617507585E+03 -0.11934581404E+03  0.46647610072E+03  0.35000000000E+03 0.  0.
       21    1    1    2  504  501 -0.98435028648E+01 -0.29636503304E+02 -0.16332570745E+03  0.16628440574E+03  0.00000000000E+00 0. -1.
<scales pt_clust_1="13000.00000" pt_clust_2="13000.00000" pt_clust_3="31.22846"></scales>
<clustering>
<clus scale="   31.228">  2  5  1 -1</clus>
<clus scale="  459.105">  1  4  2 -1</clus>
<clus scale="  459.105">  1  3  2 -1</clus>
</clustering>
</event>
<event>
 5   1  0.3464723E-02  0.3818994E+03  0.7816531E-02  0.1050234E+00
       21   -1    0    0  504  502  0.00000000000E+00  0.00000000000E+00  0.52179560689E+03  0.52179560689E+03  0.00000000000E+00 0.  1.
       21   -1    0    0  501  503  0.00000000000E+00  0.00000000000E+00 -0.40286362313E+03  0.40286362313E+03  0.00000000000E+00 0.  1.
  1000006    1    1    2  501    0  0.11208732843E+03 -0.73265344497E+02 -0.69200477455E+02  0.38107753277E+03  0.35000000000E+03 0.  0.
 -1000006    1    1    2    0  502 -0.13210961080E+03  0.12459016711E+03  0.53251827008E+02  0.39788367155E+03  0.35000000000E+03 0.  0.
       21    1    1    2  504  503  0.20022282369E+02 -0.51324822617E+02  0.13488063421E+03  0.14569802570E+03  0.00000000000E+00 0.  1.
<scales pt_clust_1="13000.00000" pt_clust_2="13000.00000" pt_clust_3="55.09201"></scales>
<clustering>
<clus scale="   55.092">  1  5  2 -1</clus>
<clus scale="  381.899">  1  4  2 -1</clus>
<clus scale="  381.899">  1  3  2 -1</clus>
</clustering>
</event>
<event>
 6   2  0.3464723E-02  0.4638360E+03  0.7816531E-02  0.1023675E+00
       21   -1    0    0  504  502  0.00000000000E+00  0.00000000000E+00  0.18050360200E+03  0.18050360200E+03  0.00000000000E+00 0.  1.
       21   -1    0    0  505  503  0.00000000000E+00  0.00000000000E+00 -0.22463857322E+04  0.22463857322E+04  0.00000000000E+00 0. -1.
  1000006    1    1    2  501    0  0.17533939078E+03 -0.28502764517E+03 -0.42112874337E+03  0.64174300071E+03  0.35000000000E+03 0.  0.
 -1000006    1    1    2    0  503 -0.15227750734E+03  0.25331792388E+03 -0.16011580473E+04  0.16654025046E+04  0.35000000000E+03 0.  0.
       21    1    1    2  504  501  0.31032695725E+02 -0.10296239189E+02  0.83954203585E+01  0.33756833803E+02  0.00000000000E+00 0. -1.
       21    1    1    2  505  502 -0.54094579159E+02  0.42005960476E+02 -0.51990759836E+02  0.85986995053E+02  0.00000000000E+00 0.  1.
<scales pt_clust_1="13000.00000" pt_clust_2="13000.00000" pt_clust_3="32.69619" pt_clust_4="65.21261"></scales>
<clustering>
<clus scale="   32.696">  1  5  2 -1</clus>
<clus scale="   65.213">  1  6  2 -1</clus>
<clus scale="  463.836">  1  3  2 -1</clus>
<clus scale="  463.836">  1  3  2 -1</clus>
</clustering>
</event>
<event>
 4   0  0.3464723E-02  0.3649138E+03  0.7816531E-02  0.1056655E+00
       21   -1    0    0  501  502  0.00000000000E+00  0.00000000000E+00  0.92620300709E+03  0.92620300709E+03  0.00000000000E+00 0. -1.
       21   -1    0    0  502  503  0.00000000000E+00  0.00000000000E+00 -0.20164995823E+03  0.20164995823E+03  0.00000000000E+00 0. -1.
  1000006    1    1    2  501    0 -0.77943238269E+02 -0.67727000789E+02  0.66439680258E+03  0.75801398820E+03  0.35000000000E+03 0.  0.
 -1000006    1    1    2    0  503  0.77943238269E+02  0.67727000789E+02  0.60156246283E+02  0.36983897712E+03  0.35000000000E+03 0.  0.
<scales pt_clust_1="13000.00000" pt_clust_2="13000.00000"></scales>
<clustering>
<clus scale="  364.914">  1  3  2 -1</clus>
<clus scale="  364.914">  1  3  2 -1</clus>
</clustering>
</event>
<event>
 4   0  0.3464723E-02  0.4211405E+03  0.7816531E-02  0.1036696E+00
       21   -1    0    0  501  502  0.00000000000E+00  0.00000000000E+00  0.82408541416E+03  0.82408541416E+03  0.00000000000E+00 0.  1.
       21   -1    0    0  502  503  0.00000000000E+00  0.00000000000E+00 -0.21600013490E+03  0.21600013490E+03  0.00000000000E+00 0.  1.
  1000006    1    1    2  501    0 -0.15320489222E+03 -0.17716552082E+03  0.33530335503E+03  0.53831932964E+03  0.35000000000E+03 0.  0.
 -1000006    1    1    2    0  503  0.15320489222E+03  0.17716552082E+03  0.27278192423E+03  0.50176621942E+03  0.35000000000E+03 0.  0.
<scales pt_clust_1="13000.00000" pt_clust_2="13000.00000"></scales>
<clustering>
<clus scale="  421.141">  1  3  2 -1</clus>
<clus scale="  421.141">  1  3  2 -1</clus>
</clustering>
</event>
<event>
 6   2  0.3464723E-02  0.4742894E+03  0.7816531E-02  0.1020717E+00
       21   -1    0    0  501  503  0.00000000000E+00  0.00000000000E+00  0.44717688664E+03  0.44717688664E+03  0.00000000000E+00 0. -1.
        1   -1    0    0  504    0  0.00000000000E+00  0.00000000000E+00 -0.21636784627E+04  0.21636784627E+04  0.00000000000E+00 0.  1.
  1000006    1    1    2  501    0  0.18401105136E+03 -0.26857146936E+03  0.43862020969E+02  0.48001518524E+03  0.35000000000E+03 0.  0.
 -1000006    1    1    2    0  502 -0.19115182501E+03  0.28452031198E+03 -0.57616037643E+03  0.75627482273E+03  0.35000000000E+03 0.  0.
       21    1    1    2  504  503  0.36610846056E+02  0.51823087409E+02  0.83409365893E+02  0.10480032804E+03  0.00000000000E+00 0. -1.
        1    1    1    2  502    0 -0.29470072406E+02 -0.67771930023E+02 -0.12676125865E+04  0.12697650133E+04  0.00000000000E+00 0.  1.
<scales pt_clust_1="13000.00000" pt_clust_2="13000.00000" pt_clust_3="63.45066" pt_clust_4="73.71274"></scales>
<clustering>
<clus scale="   63.451">  1  5  2 -1</clus>
<clus scale="   73.713">  2  6  1 -1</clus>
<clus scale="  474.289">  1  3  2 -1</clus>
<clus scale="  474.289">  1  3  2 -1</clus>
</clustering>
</event>
<event>
 6   2  0.3464723E-02  0.3574526E+03  0.7816531E-02  0.1059597E+00
        2   -1    0    0  504    0  0.00000000000E+00  0.00000000000E+00  0.19176441178E+04  0.19176441178E+04  0.00000000000E+00 0. -1.
       21   -1    0    0  501  503  0.00000000000E+00  0.00000000000E+00 -0.94715920139E+03  0.94715920139E+03  0.00000000000E+00 0.  1.
  1000006    1    1    2  501    0  0.10097741413E+02 -0.94895324877E+02 -0.61346882858E+03  0.71270687572E+03  0.35000000000E+03 0.  0.
 -1000006    1    1    2    0  502  0.17802411939E+03 -0.37024699459E+02 -0.65581687007E+02  0.39983043046E+03  0.35000000000E+03 0.  0.
       21    1    1    2  504  503  0.10413287519E+03  0.28462618801E+02  0.43182561626E+02  0.11626912743E+03  0.00000000000E+00 0.  1.
        2    1    1    2  502    0 -0.29225473599E+03  0.10345740553E+03  0.16063528704E+04  0.16359968856E+04  0.00000000000E+00 0. -1.
<scales pt_clust_1="13000.00000" pt_clust_2="13000.00000" pt_clust_3="107.95266" pt_clust_4="238.09572"></scales>
<clustering>
<clus scale="  107.953">  1  5  2 -1</clus>
<clus scale="  238.096">  1  6  2 -1</clus>
<clus scale="  357.453">  1  4  2 -1</clus>
<clus scale="  357.453">  2  3  1 -1</clus>
</clustering>
</event>
<event>
 6   2  0.3464723E-02  0.4267035E+03  0.7816531E-02  0.1034906E+00
       21   -1    0    0  501  502  0.00000000000E+00  0.00000000000E+00  0.10057634701E+04  0.10057634701E+04  0.00000000000E+00 0.  1.
       21   -1    0    0  505  503  0.00000000000E+00  0.00000000000E+00 -0.12887159769E+04  0.12887159769E+04  0.00000000000E+00 0.  1.
  1000006    1    1    2  501    0 -0.54847027411E+02  0.19956199659E+03 -0.17005830769E+03  0.44074143771E+03  0.35000000000E+03 0.  0.
 -1000006    1    1    2    0  503  0.72301723566E+02 -0.26448401555E+03 -0.79904115686E+03  0.91441024932E+03  0.35000000000E+03 0.  0.
       21    1    1    2  504  502  0.27497030943E+02  0.51774940836E+02  0.80730592889E+03  0.80943164877E+03  0.00000000000E+00 0.  1.
       21    1    1    2  505  504 -0.44951727098E+02  0.13147078121E+02 -0.12115897114E+03  0.12989611125E+03  0.00000000000E+00 0. -1.
<scales pt_clust_1="13000.00000" pt_clust_2="13000.00000" pt_clust_3="58.61500" pt_clust_4="46.83485"></scales>
<clustering>
<clus scale="   46.835">  2  6  1 -1</clus>
<clus scale="   58.615">  1  5  2 -1</clus>
<clus scale="  426.703">  1  3  2 -1</clus>
<clus scale="  426.703">  1  3  2 -1</clus>
</clustering>
</event>
<event>
 6   2  0.3464723E-02  0.3908870E+03  0.7816531E-02  0.1046982E+00
       21   -1    0    0  504  502  0.00000000000E+00  0.00000000000E+00  0.13201554745E+04  0.13201554745E+04  0.00000000000E+00 0. -1.
       21   -1    0    0  505  503  0.00000000000E+00  0.00000000000E+00 -0.48668388080E+03  0.48668388080E+03  0.00000000000E+00 0. -1.
  1000006    1    1    2  501    0  0.23918636466E+03  0.60897839911E+02  0.34009126668E+02  0.42962225809E+03  0.35000000000E+03 0.  0.
 -1000006    1    1    2    0  503 -0.10724164307E+03 -0.91993461597E+02 -0.15167067668E+03  0.40677704108E+03  0.35000000000E+03 0.  0.
       21    1    1    2  504  501 -0.12811223757E+03 -0.24184369332E+01  0.90068088012E+03  0.90974976893E+03  0.00000000000E+00 0. -1.
       21    1    1    2  505  502 -0.38324840195E+01  0.33514058619E+02  0.50452263567E+02  0.60690287179E+02  0.00000000000E+00 0.  1.
<scales pt_clust_1="13000.00000" pt_clust_2="13000.00000" pt_clust_3="132.62174" pt_clust_4="33.73248"></scales>
<clustering>
<clus scale="   33.732">  1  6  2 -1</clus>
<clus scale="  132.622">  1  5  2 -1</clus>
<clus scale="  390.887">  1  3  2 -1</clus>
<clus scale="  390.887">  1  3  2 -1</clus>
</clustering>
</event>
<event>
 5   1  0.3464723E-02  0.3589499E+03  0.7816531E-02  0.1059000E+00
       21   -1    0    0  501  502  0.00000000000E+00  0.00000000000E+00  0.75211410732E+03  0.75211410732E+03  0.00000000000E+00 0. -1.
       21   -1    0    0  504  503  0.00000000000E+00  0.00000000000E+00 -0.25538979314E+03  0.25538979314E+03  0.00000000000E+00 0. -1.
  1000006    1    1    2  501    0 -0.56103881600E+02 -0.71957347756E+02  0.37430223573E+03  0.52050712685E+03  0.35000000000E+03 0.  0.
 -1000006    1    1    2    0  503  0.50111892453E+02  0.40093455266E+02  0.19624850343E+03  0.40636456787E+03  0.35000000000E+03 0.  0.
       21    1    1    2  504  502  0.59919891471E+01  0.31863892490E+02 -0.73826424973E+02  0.80632205742E+02  0.00000000000E+00 0. -1.
<scales pt_clust_1="13000.00000" pt_clust_2="13000.00000" pt_clust_3="32.42239"></scales>
<clustering>
<clus scale="   32.422">  2  5  1 -1</clus>
<clus scale="  358.950">  1  3  2 -1</clus>
<clus scale="  358.950">  1  3  2 -1</clus>
</clustering>
</event>
<event>
 5   1  0.3464723E-02  0.3514828E+03  0.7816531E-02  0.1062008E+00
       21   -1    0    0  504  502  0.00000000000E+00  0.00000000000E+00  0.26651079494E+04  0.26651079494E+04  0.00000000000E+00 0.  1.
       21   -1    0    0  501  503  0.00000000000E+00  0.00000000000E+00 -0.11054742691E+03  0.11054742691E+03  0.00000000000E+00 0.  1.
  1000006    1    1    2  501    0 -0.75382393478E+02  0.46039457718E+02  0.50596464610E+03  0.62153226788E+03  0.35000000000E+03 0.  0.
 -1000006    1    1    2    0  502 -0.17995433583E+02  0.29500362554E+02  0.56397456938E+03  0.66465135367E+03  0.35000000000E+03 0.  0.
       21    1    1    2  504  503  0.93377827061E+02 -0.75539820271E+02  0.14846213070E+04  0.14894717548E+04  0.00000000000E+00 0.  1.
<scales pt_clust_1="13000.00000" pt_clust_2="13000.00000" pt_clust_3="120.10696"></scales>
<clustering>
<clus scale="  120.107">  1  5  2 -1</clus>
<clus scale="  351.483">  2  3  1 -1</clus>
<clus scale="  351.483">  1  3  2 -1</clus>
</clustering>
</event>
<event>
 5   1  0.3464723E-02  0.5271503E+03  0.7816531E-02  0.1006926E+00
       21   -1    0    0  504  502  0.00000000000E+00  0.00000000000E+00  0.42677074738E+03  0.42677074738E+03  0.00000000000E+00 0.  1.
       21   -1    0    0  501  503  0.00000000000E+00  0.00000000000E+00 -0.81019921227E+03  0.81019921227E+03  0.00000000000E+00 0. -1.
  1000006    1    1    2  501    0  0.41670743002E+03 -0.16468810045E+03 -0.13926207471E+03  0.58537268310E+03  0.35000000000E+03 0.  0.
 -1000006    1    1    2    0  502 -0.31255716446E+03  0.14403250616E+03 -0.16053828763E+03  0.51643962443E+03  0.35000000000E+03 0.  0.
       21    1    1    2  504  503 -0.10415026556E+03  0.20655594293E+02 -0.83628102556E+02  0.13515765213E+03  0.00000000000E+00 0.  1.
<scales pt_clust_1="13000.00000" pt_clust_2="13000.00000" pt_clust_3="106.17877"></scales>
<clustering>
<clus scale="  106.179">  2  5  1 -1</clus>
<clus scale="  527.150">  2  3  1 -1</clus>
<clus scale="  527.150">  1  3  2 -1</clus>
</clustering>
</event>
<event>
 5   1  0.3464723E-02  0.5400763E+03  0.7816531E-02  0.1003817E+00
       21   -1    0    0  504  502  0.00000000000E+00  0.00000000000E+00  0.39137961239E+03  0.39137961239E+03  0.00000000000E+00 0. -1.
       21   -1    0    0  501  503  0.00000000000E+00  0.00000000000E+00 -0.16333710003E+04  0.16333710003E+04  0.00000000000E+00 0.  1.
  1000006    1    1    2  501    0  0.34087898249E+03 -0.19932042100E+03 -0.69547934935E+03  0.87299406430E+03  0.35000000000E+03 0.  0.
 -1000006    1    1    2    0  502 -0.38896740528E+03  0.18097833131E+03 -0.75542456354E+03  0.93659760301E+03  0.35000000000E+03 0.  0.
       21    1    1    2  504  503  0.48088422788E+02  0.18342089686E+02  0.20891252500E+03  0.21515894535E+03  0.00000000000E+00 0. -1.
<scales pt_clust_1="13000.00000" pt_clust_2="13000.00000" pt_clust_3="51.46774"></scales>
<clustering>
<clus scale="   51.468">  1  5  2 -1</clus>
<clus scale="  540.076">  1  4  2 -1</clus>
<clus scale="  540.076">  1  3  2 -1</clus>
</clustering>
</event>
<event>
 5   1  0.3464723E-02  0.4460667E+03  0.7816531E-02  0.1028902E+00
       21   -1    0    0  504  502  0.00000000000E+00  0.00000000000E+00  0.94322962608E+02  0.94322962608E+02  0.00000000000E+00 0.  1.
       21   -1    0    0  502  503  0.00000000000E+00  0.00000000000E+00 -0.36290607931E+04  0.36290607931E+04  0.00000000000E+00 0.  1.
  1000006    1    1    2  501    0 -0.33223165724E+03  0.10453534420E+03 -0.13432449058E+04  0.14311227722E+04  0.35000000000E+03 0.  0.
 -1000006    1    1    2    0  503  0.24207189076E+03 -0.26034346307E+02 -0.20969343136E+04  0.21398388030E+04  0.35000000000E+03 0.  0.
       21    1    1    2  504  501  0.90159766480E+02 -0.78500997896E+02 -0.94558611186E+02  0.15242218051E+03  0.00000000000E+00 0.  1.
<scales pt_clust_1="13000.00000" pt_clust_2="13000.00000" pt_clust_3="119.54577"></scales>
<clustering>
<clus scale="  119.546">  1  5  2 -1</clus>
<clus scale="  446.067">  1  3  2 -1</clus>
<clus scale="  446.067">  1  3  2 -1</clus>
</clustering>
</event>
<event>
 6   2  0.3464723E-02  0.4061461E+03  0.7816531E-02  0.1041672E+00
       -2   -1    0    0    0  501  0.00000000000E+00  0.00000000000E+00  0.35383379388E+03  0.35383379388E+03  0.00000000000E+00 0. -1.
       21   -1    0    0  502  503  0.00000000000E+00  0.00000000000E+00 -0.29539052100E+04  0.29539052100E+04  0.00000000000E+00 0. -1.
  1000006    1    1    2  502    0 -0.11031659747E+03  0.15626337156E+03 -0.17487858067E+04  0.17936944529E+04  0.35000000000E+03 0.  0.
 -1000006    1    1    2    0  504  0.29181723453E+03 -0.37056588152E+02 -0.10706490618E+04  0.11641820745E+04  0.35000000000E+03 0.  0.
       21    1    1    2  504  501 -0.42617071325E+01 -0.69558743939E+02  0.88805625913E+01  0.70252725200E+02  0.00000000000E+00 0. -1.
       -2    1    1    2    0  503 -0.17723892992E+03 -0.49648039471E+02  0.21048288974E+03  0.27960975122E+03  0.00000000000E+00 0. -1.
<scales pt_clust_1="13000.00000" pt_clust_2="13000.00000" pt_clust_3="69.68917" pt_clust_4="208.31432"></scales>
<clustering>
<clus scale="   69.689">  1  5  2 -1</clus>
<clus scale="  208.314">  1  6  2 -1</clus>
<clus scale="  406.146">  2  3  1 -1</clus>
<clus scale="  406.146">  2  3  1 -1</clus>
</clustering>
</event>
<event>
 5   1  0.3464723E-02  0.4180524E+03  0.7816531E-02  0.1037702E+00
       21   -1    0    0  501  503  0.00000000000E+00  0.00000000000E+00  0.13313387394E+03  0.13313387394E+03  0.00000000000E+00 0.  1.
        2   -1    0    0  503    0  0.00000000000E+00  0.00000000000E+00 -0.16942872924E+04  0.16942872924E+04  0.00000000000E+00 0.  1.
  1000006    1    1    2  501    0  0.12981784009E+03  0.16715057818E+03 -0.46231824816E+03  0.61727639674E+03  0.35000000000E+03 0.  0.
 -1000006    1    1    2    0  502 -0.19884535580E+03 -0.17196520939E+03 -0.94402318797E+03  0.10405725771E+04  0.35000000000E+03 0.  0.
        2    1    1    2  502    0  0.69027515707E+02  0.48146312140E+01 -0.15481198235E+03  0.16957219252E+03  0.00000000000E+00 0.  1.
<scales pt_clust_1="13000.00000" pt_clust_2="13000.00000" pt_clust_3="69.19522"></scales>
<clustering>
<clus scale="   69.195">  2  5  1 -1</clus>
<clus scale="  418.052">  2  4  1 -1</clus>
<clus scale="  418.052">  1  3  2 -1</clus>
</clustering>
</event>
<event>
 6   2  0.3464723E-02  0.4186066E+03  0.7816531E-02  0.1037521E+00
        2   -1    0    0  501    0  0.00000000000E+00  0.00000000000E+00  0.31100206968E+04  0.31100206968E+04  0.00000000000E+00 0.  1.
       21   -1    0    0  504  503  0.00000000000E+00  0.00000000000E+00 -0.15488643055E+03  0.15488643055E+03  0.00000000000E+00 0. -1.
  1000006    1    1    2  501    0 -0.27702417260E+03 -0.13114891714E+03  0.60349536623E+03  0.76200333840E+03  0.35000000000E+03 0.  0.
 -1000006    1    1    2    0  503  0.91308710045E+02  0.16304700534E+03  0.48993315521E+03  0.63044119714E+03  0.35000000000E+03 0.  0.
       21    1    1    2  504  502  0.59543068383E+02 -0.34220840366E+02  0.46152839324E+03  0.46661000919E+03  0.00000000000E+00 0. -1.
        2    1    1    2  502    0  0.12617239417E+03  0.23227521631E+01  0.14001773516E+04  0.14058525826E+04  0.00000000000E+00 0.  1.
<scales pt_clust_1="13000.00000" pt_clust_2="13000.00000" pt_clust_3="50.35991" pt_clust_4="200.41925"></scales>
<clustering>
<clus scale="   50.360">  5  6 -1 -1</clus>
<clus scale="  200.419">  1  5  2 -1</clus>
<clus scale="  418.607">  1  3  2 -1</clus>
<clus scale="  418.607">  2  3  1 -1</clus>
</clustering>
</event>
<event>
 6   2  0.3464723E-02  0.5085324E+03  0.7816531E-02  0.1011576E+00
       21   -1    0    0  505  502  0.00000000000E+00  0.00000000000E+00  0.26795123970E+03  0.26795123970E+03  0.00000000000E+00 0.  1.
       21   -1    0    0  501  503  0.00000000000E+00  0.00000000000E+00 -0.14879911991E+04  0.14879911991E+04  0.00000000000E+00 0.  1.
  1000006    1    1    2  501    0 -0.27781962719E+03  0.24905584459E+03 -0.81495439010E+03  0.96221786354E+03  0.35000000000E+03 0.  0.
 -1000006    1    1    2    0  504  0.29579473079E+03 -0.21811639272E+03 -0.27061980048E+03  0.57515594402E+03  0.35000000000E+03 0.  0.
       21    1    1    2  504  502  0.35787709806E+02  0.48321055006E+02 -0.91153070662E+01  0.60817541491E+02  0.00000000000E+00 0.  1.
       21    1    1    2  505  503 -0.53762813407E+02 -0.79260506881E+02 -0.12535046180E+03  0.15775108979E+03  0.00000000000E+00 0. -1.
<scales pt_clust_1="13000.00000" pt_clust_2="13000.00000" pt_clust_3="60.13056" pt_clust_4="91.75397"></scales>
<clustering>
<clus scale="   60.131">  1  5  2 -1</clus>
<clus scale="   91.754">  2  6  1 -1</clus>
<clus scale="  508.532">  2  3  1 -1</clus>
<clus scale="  508.532">  1  3  2 -1</clus>
</clustering>
</event>
<event>
 6   2  0.3464723E-02  0.3775019E+03  0.7816531E-02  0.1051861E+00
       21   -1    0    0  505  502  0.00000000000E+00  0.00000000000E+00  0.18600679947E+04  0.18600679947E+04  0.00000000000E+00 0. -1.
       21   -1    0    0  502  503  0.00000000000E+00  0.00000000000E+00 -0.15860581386E+03  0.15860581386E+03  0.00000000000E+00 0. -1.
  1000006    1    1    2  501    0 -0.16140987932E+03  0.17640798055E+03  0.69467759861E+03  0.81378737441E+03  0.35000000000E+03 0.  0.
 -1000006    1    1    2    0  503  0.10009588880E+03 -0.20333046395E+02  0.30263363811E+03  0.47383513868E+03  0.35000000000E+03 0.  0.
       21    1    1    2  504  501  0.67456684749E+02 -0.98266828995E+02  0.60046408262E+03  0.61217962112E+03  0.00000000000E+00 0. -1.
       21    1    1    2  505  504 -0.61426942254E+01 -0.57808105162E+02  0.10368686148E+03  0.11887167433E+03  0.00000000000E+00 0. -1.
<scales pt_clust_1="13000.00000" pt_clust_2="13000.00000" pt_clust_3="135.14710" pt_clust_4="58.13355"></scales>
<clustering>
<clus scale="   58.134">  1  6  2 -1</clus>
<clus scale="  135.147">  1  5  2 -1</clus>
<clus scale="  377.502">  1  3  2 -1</clus>
<clus scale="  377.502">  1  3  2 -1</clus>
</clustering>
</event>
<event>
 5   1  0.3464723E-02  0.4923296E+03  0.7816531E-02  0.1015801E+00
       21   -1    0    0  501  502  0.00000000000E+00  0.00000000000E+00  0.29353443501E+03  0.29353443501E+03  0.00000000000E+00 0. -1.
       21   -1    0    0  504  503  0.00000000000E+00  0.00000000000E+00 -0.96909529969E+03  0.96909529969E+03  0.00000000000E+00 0. -1.
  1000006    1    1    2  501    0 -0.23800302073E+03  0.22931372630E+03 -0.18457447027E+03  0.51555596982E+03  0.35000000000E+03 0.  0.
 -1000006    1    1    2    0  503  0.28924652280E+03 -0.23487396958E+03 -0.45311525267E+03  0.68311255642E+03  0.35000000000E+03 0.  0.
       21    1    1    2  504  502 -0.51243502072E+02  0.55602432826E+01 -0.37871141745E+02  0.63961208455E+02  0.00000000000E+00 0. -1.
<scales pt_clust_1="13000.00000" pt_clust_2="13000.00000" pt_clust_3="51.54428"></scales>
<clustering>
<clus scale="   51.544">  2  5  1 -1</clus>
<clus scale="  492.330">  2  4  1 -1</clus>
<clus scale="  492.330">  1  3  2 -1</clus>
</clustering>
</event>
<event>
 6   2  0.3464723E-02  0.3735581E+03  0.7816531E-02  0.1053341E+00
       21   -1    0    0  505  502  0.00000000000E+00  0.00000000000E+00  0.93998704486E+03  0.93998704486E+03  0.00000000000E+00 0.  1.
       21   -1    0    0  501  503  0.00000000000E+00  0.00000000000E+00 -0.35188589845E+03  0.35188589845E+03  0.00000000000E+00 0.  1.
  1000006    1    1    2  501    0 -0.17803956453E+02  0.73120670660E+02  0.58206049317E+02  0.36270036879E+03  0.35000000000E+03 0.  0.
 -1000006    1    1    2    0  502  0.78811230819E+02 -0.14982552994E+03  0.20173977418E+03  0.43801579425E+03  0.35000000000E+03 0.  0.
       21    1    1    2  504  503 -0.86745985148E+02  0.99237505151E+02 -0.26844694052E+02  0.13451240079E+03  0.00000000000E+00 0.  1.
       21    1    1    2  505  504  0.25738710782E+02 -0.22532645869E+02  0.35500001697E+03  0.35664437948E+03  0.00000000000E+00 0.  1.
<scales pt_clust_1="13000.00000" pt_clust_2="13000.00000" pt_clust_3="128.68270" pt_clust_4="34.20821"></scales>
<clustering>
<clus scale="   34.208">  1  6  2 -1</clus>
<clus scale="  128.683">  2  5  1 -1</clus>
<clus scale="  373.558">  1  4  2 -1</clus>
<clus scale="  373.558">  1  3  2 -1</clus>
</clustering>
</event>
<event>
 6   2  0.3464723E-02  0.3705543E+03  0.7816531E-02  0.1054481E+00
        2   -1    0    0  504    0  0.00000000000E+00  0.00000000000E+00  0.54911963122E+03  0.54911963122E+03  0.00000000000E+00 0.  1.
       21   -1    0    0  501  503  0.00000000000E+00  0.00000000000E+00 -0.16873439889E+04  0.16873439889E+04  0.00000000000E+00 0. -1.
  1000006    1    1    2  501    0 -0.13309407591E+03 -0.72199294973E+02 -0.36558217136E+03  0.52827747941E+03  0.35000000000E+03 0.  0.
 -1000006    1    1    2    0  502  0.11516017219E+03 -0.38980767287E+02 -0.31502898270E+03  0.48633797447E+03  0.35000000000E+03 0.  0.
       21    1    1    2  504  503  0.58960331884E+02  0.10075230841E+03 -0.83448294122E+03  0.84260852569E+03  0.00000000000E+00 0. -1.
        2    1    1    2  502    0 -0.41026428162E+02  0.10427753847E+02  0.37686973759E+03  0.37923964055E+03  0.00000000000E+00 0.  1.
<scales pt_clust_1="13000.00000" pt_clust_2="13000.00000" pt_clust_3="116.46186" pt_clust_4="42.33091"></scales>
<clustering>
<clus scale="   42.331">  1  6  2 -1</clus>
<clus scale="  116.462">  2  5  1 -1</clus>
<clus scale="  370.554">  2  3  1 -1</clus>
<clus scale="  370.554">  2  3  1 -1</clus>
</clustering>
</event>
<event>
 5   1  0.3464723E-02  0.3729762E+03  0.7816531E-02  0.1053561E+00
        2   -1    0    0  503    0  0.00000000000E+00  0.00000000000E+00  0.55788882129E+03  0.55788882129E+03  0.00000000000E+00 0.  1.
       21   -1    0    0  501  503  0.00000000000E+00  0.00000000000E+00 -0.53426131109E+03  0.53426131109E+03  0.00000000000E+00 0. -1.
  1000006    1    1    2  501    0  0.30510031876E+02  0.11127439903E+03 -0.19430599870E+03  0.41661454014E+03  0.35000000000E+03 0.  0.
 -1000006    1    1    2    0  502 -0.22467942993E+03 -0.48190496563E+02  0.72624236617E+02  0.42494405506E+03  0.35000000000E+03 0.  0.
        2    1    1    2  502    0  0.19416939805E+03 -0.63083902465E+02  0.14530927229E+03  0.25059153717E+03  0.00000000000E+00 0.  1.
<scales pt_clust_1="13000.00000" pt_clust_2="13000.00000" pt_clust_3="204.16007"></scales>
<clustering>
<clus scale="  204.160">  1  5  2 -1</clus>
<clus scale="  372.976">  2  3  1 -1</clus>
<clus scale="  372.976">  2  3  1 -1</clus>
</clustering>
</event>
<event>
 6   2  0.3464723E-02  0.3982092E+03  0.7816531E-02  0.1044402E+00
       21   -1    0    0  501  502  0.00000000000E+00  0.00000000000E+00  0.41954173372E+03  0.41954173372E+03  0.00000000000E+00 0.  1.
       21   -1    0    0  504  503  0.00000000000E+00  0.00000000000E+00 -0.67102855184E+03  0.67102855184E+03  0.00000000000E+00 0.  1.
  1000006    1    1    2  501    0  0.16248673397E+03 -0.86657285592E+02 -0.62990361922E+02  0.40047373142E+03  0.35000000000E+03 0.  0.
 -1000006    1    1    2    0  505 -0.17442298199E+03  0.81663459867E+02 -0.31073523113E+03  0.50611133280E+03  0.35000000000E+03 0.  0.
       21    1    1    2  504  502  0.26743138651E+02  0.31647425441E+02  0.14182004968E+03  0.14774871063E+03  0.00000000000E+00 0.  1.
       21    1    1    2  505  503 -0.14806890628E+02 -0.26653599716E+02 -0.19581274746E+02  0.36236510712E+02  0.00000000000E+00 0. -1.
<scales pt_clust_1="13000.00000" pt_clust_2="13000.00000" pt_clust_3="41.29586" pt_clust_4="30.49030"></scales>
<clustering>
<clus scale="   30.490">  2  6  1 -1</clus>
<clus scale="   41.296">  1  5  2 -1</clus>
<clus scale="  398.209">  1  3  2 -1</clus>
<clus scale="  398.209">  1  3  2 -1</clus>
</clustering>
</event>
<event>
 5   1  0.3464723E-02  0.5200957E+03  0.7816531E-02  0.1020767E+00
       21   -1    0    0  501  502  0.00000000000E+00  0.00000000000E+00  0.10985788072E+04  0.10985788072E+04  0.00000000000E+00 0. -1.
       21   -1    0    0  504  503  0.00000000000E+00  0.00000000000E+00 -0.11141826069E+04  0.11141826069E+04  0.00000000000E+00 0.  1.
  1000006    1    1    2  501    0  0.28384266304E+03 -0.17664921861E+03  0.18981121774E+03  0.51990374318E+03  0.35000000000E+03 0.  0.
 -1000006    1    1    2    0  503  0.80385106699E+02  0.46239127402E+01 -0.85564994272E+03  0.92796550067E+03  0.35000000000E+03 0.  0.
       21    1    1    2  504  502 -0.36422776974E+03  0.17202530587E+03  0.65023492527E+03  0.76489217028E+03  0.00000000000E+00 0. -1.
<scales pt_clust_1="13000.00000" pt_clust_2="13000.00000" pt_clust_3="384.70702"></scales>
<clustering>
<clus scale="  359.142">  2  4  1 -1</clus>
<clus scale="  384.707">  1  5  2 -1</clus>
<clus scale="  520.096">  1  3  2 -1</clus>
</clustering>
</event>
<event>
 6   2  0.3464723E-02  0.4170843E+03  0.7816531E-02  0.1038019E+00
       21   -1    0    0  505  502  0.00000000000E+00  0.00000000000E+00  0.20704081476E+04  0.20704081476E+04  0.00000000000E+00 0.  1.
       21   -1    0    0  501  503  0.00000000000E+00  0.00000000000E+00 -0.83622052447E+03  0.83622052447E+03  0.00000000000E+00 0.  1.
  1000006    1    1    2  501    0 -0.20142157674E+03 -0.17704423852E+03 -0.30988578521E+03  0.53892904342E+03  0.35000000000E+03 0.  0.
 -1000006    1    1    2    0  504 -0.50228166783E+02  0.25049795789E+03 -0.28175868634E+03  0.51687527797E+03  0.35000000000E+03 0.  0.
       21    1    1    2  504  502  0.21877316408E+03 -0.31612232515E+02  0.16984620842E+04  0.17127855914E+04  0.00000000000E+00 0.  1.
       21    1    1    2  505  503  0.32876579441E+02 -0.41841486850E+02  0.12737001045E+03  0.13803875926E+03  0.00000000000E+00 0. -1.
<scales pt_clust_1="13000.00000" pt_clust_2="13000.00000" pt_clust_3="256.99346" pt_clust_4="53.21259"></scales>
<clustering>
<clus scale="   53.213">  1  6  2 -1</clus>
<clus scale="  256.993">  1  5  2 -1</clus>
<clus scale="  417.084">  2  3  1 -1</clus>
<clus scale="  417.084">  1  3  2 -1</clus>
</clustering>
</event>
<event>
 5   1  0.3464723E-02  0.5169036E+03  0.7816531E-02  0.1009459E+00
       21   -1    0    0  503  502  0.00000000000E+00  0.00000000000E+00  0.41217819286E+03  0.41217819286E+03  0.00000000000E+00 0.  1.
       21   -1    0    0  504  503  0.00000000000E+00  0.00000000000E+00 -0.81971479576E+03  0.81971479576E+03  0.00000000000E+00 0. -1.
  1000006    1    1    2  501    0  0.32086237345E+03  0.24020927299E+03 -0.19421569315E+03  0.56645643521E+03  0.35000000000E+03 0.  0.
 -1000006    1    1    2    0  502 -0.30054067125E+03 -0.20736641345E+03 -0.62369697333E+02  0.50962290338E+03  0.35000000000E+03 0.  0.
       21    1    1    2  504  501 -0.20321702197E+02 -0.32842859547E+02 -0.15095121242E+03  0.15581365003E+03  0.00000000000E+00 0. -1.
<scales pt_clust_1="13000.00000" pt_clust_2="13000.00000" pt_clust_3="38.62156"></scales>
<clustering>
<clus scale="   38.622">  2  5  1 -1</clus>
<clus scale="  516.904">  2  3  1 -1</clus>
<clus scale="  516.904">  1  3  2 -1</clus>
</clustering>
</event>
<event>
 6   2  0.3464723E-02  0.3557481E+03  0.7816531E-02  0.1060280E+00
       21   -1    0    0  501  502  0.00000000000E+00  0.00000000000E+00  0.15311221027E+04  0.15311221027E+04  0.00000000000E+00 0.  1.
       21   -1    0    0  505  503  0.00000000000E+00  0.00000000000E+00 -0.24504950721E+03  0.24504950721E+03  0.00000000000E+00 0.  1.
  1000006    1    1    2  501    0 -0.73927752525E+01  0.12603857354E+02  0.27693727916E+03  0.44655096790E+03  0.35000000000E+03 0.  0.
 -1000006    1    1    2    0  504 -0.19529943213E+02 -0.11620924318E+03  0.17622598244E+03  0.40919629002E+03  0.35000000000E+03 0.  0.
       21    1    1    2  504  503 -0.78350634936E+01  0.55462267083E+02 -0.24374503922E+02  0.61086559334E+02  0.00000000000E+00 0.  1.
       21    1    1    2  505  502  0.34757781959E+02  0.48143118747E+02  0.85728383786E+03  0.85933779269E+03  0.00000000000E+00 0.  1.
<scales pt_clust_1="13000.00000" pt_clust_2="13000.00000" pt_clust_3="56.01296" pt_clust_4="59.58428"></scales>
<clustering>
<clus scale="   56.013">  2  5  1 -1</clus>
<clus scale="   59.584">  1  6  2 -1</clus>
<clus scale="  355.748">  1  3  2 -1</clus>
<clus scale="  355.748">  1  3  2 -1</clus>
</clustering>
</event>
<event>
 4   0  0.3464723E-02  0.3822984E+03  0.7816531E-02  0.1050087E+00
       21   -1    0    0  503  502  0.00000000000E+00  0.00000000000E+00  0.15941481840E+03  0.15941481840E+03  0.00000000000E+00 0.  1.
       21   -1    0    0  501  503  0.00000000000E+00  0.00000000000E+00 -0.91798432173E+03  0.91798432173E+03  0.00000000000E+00 0.  1.
  1000006    1    1    2  501    0  0.77831909962E+02 -0.13264349562E+03 -0.39860333987E+03  0.55230129974E+03  0.35000000000E+03 0.  0.
 -1000006    1    1    2    0  502 -0.77831909962E+02  0.13264349562E+03 -0.35996616347E+03  0.52509784039E+03  0.35000000000E+03 0.  0.
<scales pt_clust_1="13000.00000" pt_clust_2="13000.00000"></scales>
<clustering>
<clus scale="  382.298">  2  3  1 -1</clus>
<clus scale="  382.298">  1  3  2 -1</clus>
</clustering>
</event>
<event>
 6   2  0.3464723E-02  0.5583664E+03  0.7816531E-02  0.9995758E-01
       21   -1    0    0  501  502  0.00000000000E+00  0.00000000000E+00  0.67296231568E+03  0.67296231568E+03  0.00000000000E+00 0.  1.
       21   -1    0    0  504  503  0.00000000000E+00  0.00000000000E+00 -0.59696531606E+03  0.59696531606E+03  0.00000000000E+00 0. -1.
  1000006    1    1    2  501    0 -0.78828548167E+00  0.42136467022E+03  0.12305711955E+03  0.56141950569E+03  0.35000000000E+03 0.  0.
 -1000006    1    1    2    0  503 -0.11092217455E+03 -0.44750648746E+03 -0.98637788067E+01  0.57893270702E+03  0.35000000000E+03 0.  0.
       21    1    1    2  504  505  0.32141070198E+02  0.27955244372E+02 -0.22662322943E+01  0.42657706105E+02  0.00000000000E+00 0.  1.
       21    1    1    2  505  502  0.79569389830E+02 -0.18134271274E+01 -0.34930108841E+02  0.86917712922E+02  0.00000000000E+00 0.  1.
<scales pt_clust_1="13000.00000" pt_clust_2="13000.00000" pt_clust_3="34.65255" pt_clust_4="124.12180"></scales>
<clustering>
<clus scale="   34.653">  5  6 -1 -1</clus>
<clus scale="  124.122">  2  5  1 -1</clus>
<clus scale="  558.366">  1  3  2 -1</clus>
<clus scale="  558.366">  1  3  2 -1</clus>
</clustering>
</event>
<event>
 4   0  0.3464723E-02  0.3858948E+03  0.7816531E-02  0.1048776E+00
       21   -1    0    0  501  502  0.00000000000E+00  0.00000000000E+00  0.77268633860E+03  0.77268633860E+03  0.00000000000E+00 0. -1.
       21   -1    0    0  502  503  0.00000000000E+00  0.00000000000E+00 -0.19844704268E+03  0.19844704268E+03  0.00000000000E+00 0. -1.
  1000006    1    1    2  501    0  0.16235897826E+03  0.73742678284E+01  0.36958261036E+03  0.53432773045E+03  0.35000000000E+03 0.  0.
 -1000006    1    1    2    0  503 -0.16235897826E+03 -0.73742678284E+01  0.20465668556E+03  0.43680565082E+03  0.35000000000E+03 0.  0.
<scales pt_clust_1="13000.00000" pt_clust_2="13000.00000"></scales>
<clustering>
<clus scale="  385.895">  1  3  2 -1</clus>
<clus scale="  385.895">  1  3  2 -1</clus>
</clustering>
</event>
<event>
 5   1  0.3464723E-02  0.3715054E+03  0.7816531E-02  0.1054119E+00
       21   -1    0    0  503  502  0.00000000000E+00  0.00000000000E+00  0.10488461045E+04  0.10488461045E+04  0.00000000000E+00 0. -1.
       21   -1    0    0  501  503  0.00000000000E+00  0.00000000000E+00 -0.16728540657E+03  0.16728540657E+03  0.00000000000E+00 0. -1.
  1000006    1    1    2  501    0  0.12957511501E+02 -0.14497281081E+03  0.28999793000E+03  0.47726702419E+03  0.35000000000E+03 0.  0.
 -1000006    1    1    2    0  504 -0.17931800726E+02  0.97632233516E+02  0.39665173282E+03  0.53822504554E+03  0.35000000000E+03 0.  0.
       21    1    1    2  504  502  0.49742892254E+01  0.47340577294E+02  0.19491103512E+03  0.20063944135E+03  0.00000000000E+00 0. -1.
<scales pt_clust_1="13000.00000" pt_clust_2="13000.00000" pt_clust_3="47.60120"></scales>
<clustering>
<clus scale="   47.601">  1  5  2 -1</clus>
<clus scale="  371.505">  1  4  2 -1</clus>
<clus scale="  371.505">  1  3  2 -1</clus>
</clustering>
</event>
<event>
 5   1  0.3464723E-02  0.3771699E+03  0.7816531E-02  0.1051985E+00
       21   -1    0    0  501  503  0.00000000000E+00  0.00000000000E+00  0.84710260830E+03  0.84710260830E+03  0.00000000000E+00 0.  1.
       -3   -1    0    0    0  501  0.00000000000E+00  0.00000000000E+00 -0.29693716435E+03  0.29693716435E+03  0.00000000000E+00 0. -1.
  1000006    1    1    2  502    0  0.75647215571E+02 -0.91982958429E+02  0.21587501763E+03  0.42811842883E+03  0.35000000000E+03 0.  0.
 -1000006    1    1    2    0  503 -0.57817603737E+02  0.14651569828E+03  0.44717061931E+03  0.58929728314E+03  0.35000000000E+03 0.  0.
       -3    1    1    2    0  502 -0.17829611834E+02 -0.54532739847E+02 -0.11288019299E+03  0.12662406068E+03  0.00000000000E+00 0. -1.
<scales pt_clust_1="13000.00000" pt_clust_2="13000.00000" pt_clust_3="57.37347"></scales>
<clustering>
<clus scale="   57.373">  2  5  1 -1</clus>
<clus scale="  377.170">  2  3  1 -1</clus>
<clus scale="  377.170">  1  3  2 -1</clus>
</clustering>
</event>
<event>
 6   2  0.3464723E-02  0.4203774E+03  0.7816531E-02  0.1036944E+00
       21   -1    0    0  501  502  0.00000000000E+00  0.00000000000E+00  0.57655000563E+03  0.57655000563E+03  0.00000000000E+00 0. -1.
       21   -1    0    0  504  503  0.00000000000E+00  0.00000000000E+00 -0.83190635074E+03  0.83190635074E+03  0.00000000000E+00 0. -1.
  1000006    1    1    2  501    0 -0.31251851986E+03 -0.42334417059E+02 -0.21031754128E+03  0.51593943083E+03  0.35000000000E+03 0.  0.
 -1000006    1    1    2    0  505  0.16139790575E+03  0.21559390434E+02 -0.24131644767E+03  0.45524468060E+03  0.35000000000E+03 0.  0.
       21    1    1    2  504  502  0.11297357711E+03 -0.40581375012E+02  0.29294693136E+03  0.31658771568E+03  0.00000000000E+00 0. -1.
       21    1    1    2  505  503  0.38147036994E+02  0.61356401637E+02 -0.96669287529E+02  0.12068452927E+03  0.00000000000E+00 0. -1.
<scales pt_clust_1="13000.00000" pt_clust_2="13000.00000" pt_clust_3="120.29444" pt_clust_4="72.24821"></scales>
<clustering>
<clus scale="   72.248">  2  6  1 -1</clus>
<clus scale="  120.294">  1  5  2 -1</clus>
<clus scale="  420.377">  2  4  1 -1</clus>
<clus scale="  420.377">  1  3  2 -1</clus>
</clustering>
</event>
<event>
 6   2  0.3464723E-02  0.3793221E+03  0.7816531E-02  0.1051185E+00
       21   -1    0    0  501  503  0.00000000000E+00  0.00000000000E+00  0.14308695280E+03  0.14308695280E+03  0.00000000000E+00 0. -1.
        1   -1    0    0  504    0  0.00000000000E+00  0.00000000000E+00 -0.40028923201E+04  0.40028923201E+04  0.00000000000E+00 0. -1.
  1000006    1    1    2  501    0  0.71444095641E+01  0.20660005979E+03 -0.54056398135E+03  0.67634609870E+03  0.35000000000E+03 0.  0.
 -1000006    1    1    2    0  502  0.22405221326E+03  0.90031197344E+01 -0.62681386064E+03  0.75211439710E+03  0.35000000000E+03 0.  0.
       21    1    1    2  504  503 -0.63714996903E+01  0.32785438433E+02 -0.24864348200E+03  0.25087658744E+03  0.00000000000E+00 0.  1.
        1    1    1    2  502    0 -0.22482512313E+03 -0.24838861795E+03 -0.24437840433E+04  0.24666421896E+04  0.00000000000E+00 0. -1.
<scales pt_clust_1="13000.00000" pt_clust_2="13000.00000" pt_clust_3="33.39882" pt_clust_4="322.39753"></scales>
<clustering>
<clus scale="   33.399">  2  5  1 -1</clus>
<clus scale="  322.398">  2  6  1 -1</clus>
<clus scale="  379.322">  2  4  1 -1</clus>
<clus scale="  379.322">  1  3  2 -1</clus>
</clustering>
</event>
<event>
 6   2  0.3464723E-02  0.4675375E+03  0.7816531E-02  0.1022618E+00
        2   -1    0    0  504    0  0.00000000000E+00  0.00000000000E+00  0.29157917189E+04  0.29157917189E+04  0.00000000000E+00 0. -1.
       21   -1    0    0  501  503  0.00000000000E+00  0.00000000000E+00 -0.18069220149E+03  0.18069220149E+03  0.00000000000E+00 0. -1.
  1000006    1    1    2  501    0  0.22788563462E+03 -0.26354874921E+03  0.39344660072E+03  0.63141906314E+03  0.35000000000E+03 0.  0.
 -1000006    1    1    2    0  502 -0.20100670292E+03  0.14822019022E+03  0.80737440411E+03  0.91472747189E+03  0.35000000000E+03 0.  0.
       21    1    1    2  504  503 -0.49156898097E+02 -0.36388709584E+02  0.27273593827E+03  0.27950926789E+03  0.00000000000E+00 0.  1.
        2    1    1    2  502    0  0.22277966396E+02  0.15171726857E+03  0.12615425744E+04  0.12708281175E+04  0.00000000000E+00 0. -1.
<scales pt_clust_1="13000.00000" pt_clust_2="13000.00000" pt_clust_3="61.15994" pt_clust_4="134.26879"></scales>
<clustering>
<clus scale="   61.160">  1  5  2 -1</clus>
<clus scale="  134.269">  1  6  2 -1</clus>
<clus scale="  467.537">  1  4  2 -1</clus>
<clus scale="  467.537">  2  3  1 -1</clus>
</clustering>
</event>
<event>
 5   1  0.3464723E-02  0.3622472E+03  0.7816531E-02  0.1057698E+00
        3   -1    0    0  503    0  0.00000000000E+00  0.00000000000E+00  0.47975699417E+03  0.47975699417E+03  0.00000000000E+00 0. -1.
       21   -1    0    0  501  503  0.00000000000E+00  0.00000000000E+00 -0.48596730924E+03  0.48596730924E+03  0.00000000000E+00 0. -1.
  1000006    1    1    2  501    0  0.54591266730E+02  0.14231684494E+03 -0.14556644569E+03  0.40856319079E+03  0.35000000000E+03 0.  0.
 -1000006    1    1    2    0  502 -0.21217639953E+02 -0.10546288087E+02 -0.15456113702E+02  0.35114143004E+03  0.35000000000E+03 0.  0.
        3    1    1    2  502    0 -0.33373626777E+02 -0.13177055685E+03  0.15481224432E+03  0.20601968258E+03  0.00000000000E+00 0. -1.
<scales pt_clust_1="13000.00000" pt_clust_2="13000.00000" pt_clust_3="135.93115"></scales>
<clustering>
<clus scale="  135.931">  1  5  2 -1</clus>
<clus scale="  362.247">  2  3  1 -1</clus>
<clus scale="  362.247">  2  3  1 -1</clus>
</clustering>
</event>
<event>
 6   2  0.3464723E-02  0.3722204E+03  0.7816531E-02  0.1053847E+00
       21   -1    0    0  501  502  0.00000000000E+00  0.00000000000E+00  0.48753283892E+03  0.48753283892E+03  0.00000000000E+00 0. -1.
       21   -1    0    0  505  503  0.00000000000E+00  0.00000000000E+00 -0.70932565231E+03  0.70932565231E+03  0.00000000000E+00 0.  1.
  1000006    1    1    2  501    0 -0.61271279774E+02 -0.13884694691E+03  0.19695060612E+03  0.42932759711E+03  0.35000000000E+03 0.  0.
 -1000006    1    1    2    0  503  0.10188281139E+03  0.60710957767E+02 -0.62163929222E+02  0.37474028572E+03  0.35000000000E+03 0.  0.
       21    1    1    2  504  502 -0.54351879804E+01  0.34771861164E+02 -0.35501012985E+01  0.35372684608E+02  0.00000000000E+00 0.  1.
       21    1    1    2  505  504 -0.35176343632E+02  0.43364127977E+02 -0.35302938899E+03  0.35741792378E+03  0.00000000000E+00 0.  1.
<scales pt_clust_1="13000.00000" pt_clust_2="13000.00000" pt_clust_3="35.19408" pt_clust_4="55.97910"></scales>
<clustering>
<clus scale="   35.194">  1  5  2 -1</clus>
<clus scale="   55.979">  2  6  1 -1</clus>
<clus scale="  372.220">  2  4  1 -1</clus>
<clus scale="  372.220">  1  3  2 -1</clus>
</clustering>
</event>
<event>
 6   2  0.3464723E-02  0.3829245E+03  0.7816531E-02  0.1049858E+00
       21   -1    0    0  505  502  0.00000000000E+00  0.00000000000E+00  0.21808257641E+04  0.21808257641E+04  0.00000000000E+00 0. -1.
       21   -1    0    0  501  503  0.00000000000E+00  0.00000000000E+00 -0.37516486494E+03  0.37516486494E+03  0.00000000000E+00 0. -1.
  1000006    1    1    2  501    0 -0.93327219701E+02  0.10484304140E+03 -0.15764774319E+03  0.40872343241E+03  0.35000000000E+03 0.  0.
 -1000006    1    1    2    0  502  0.18795136261E+03 -0.13325757507E+03  0.51821716712E+03  0.66643253846E+03  0.35000000000E+03 0.  0.
       21    1    1    2  504  503 -0.47578689242E+02  0.50433891763E+02  0.51731917351E+02  0.86507227335E+02  0.00000000000E+00 0. -1.
       21    1    1    2  505  504 -0.47045453668E+02 -0.22019358094E+02  0.13933595579E+04  0.13943274309E+04  0.00000000000E+00 0. -1.
<scales pt_clust_1="13000.00000" pt_clust_2="13000.00000" pt_clust_3="70.89595" pt_clust_4="51.94350"></scales>
<clustering>
<clus scale="   51.943">  1  6  2 -1</clus>
<clus scale="   70.896">  1  5  2 -1</clus>
<clus scale="  382.925">  2  3  1 -1</clus>
<clus scale="  382.925">  1  3  2 -1</clus>
</clustering>
</event>
<event>
 4   0  0.3464723E-02  0.3748102E+03  0.7816531E-02  0.1052869E+00
       21   -1    0    0  501  502  0.00000000000E+00  0.00000000000E+00  0.57601221803E+03  0.57601221803E+03  0.00000000000E+00 0.  1.
       21   -1    0    0  502  503  0.00000000000E+00  0.00000000000E+00 -0.24830959804E+03  0.24830959804E+03  0.00000000000E+00 0.  1.
  1000006    1    1    2  501    0  0.68305298955E+02 -0.11539966867E+03  0.21884844941E+03  0.43402458594E+03  0.35000000000E+03 0.  0.
 -1000006    1    1    2    0  503 -0.68305298955E+02  0.11539966867E+03  0.10885417057E+03  0.39029723013E+03  0.35000000000E+03 0.  0.
<scales pt_clust_1="13000.00000" pt_clust_2="13000.00000"></scales>
<clustering>
<clus scale="  374.810">  1  3  2 -1</clus>
<clus scale="  374.810">  1  3  2 -1</clus>
</clustering>
</event>
<event>
 5   1  0.3464723E-02  0.3841822E+03  0.7816531E-02  0.1049399E+00
       21   -1    0    0  504  502  0.00000000000E+00  0.00000000000E+00  0.24722130872E+03  0.24722130872E+03  0.00000000000E+00 0.  1.
       21   -1    0    0  502  503  0.00000000000E+00  0.00000000000E+00 -0.13014136994E+04  0.13014136994E+04  0.00000000000E+00 0.  1.
  1000006    1    1    2  501    0 -0.71250790367E+02 -0.18367174853E+03 -0.48693333800E+02  0.40457759094E+03  0.35000000000E+03 0.  0.
 -1000006    1    1    2    0  503  0.40240368393E+02  0.14566339402E+03 -0.10231952752E+04  0.10919091917E+04  0.35000000000E+03 0.  0.
       21    1    1    2  504  501  0.31010421974E+02  0.38008354508E+02  0.17696218323E+02  0.52148225534E+02  0.00000000000E+00 0.  1.
<scales pt_clust_1="13000.00000" pt_clust_2="13000.00000" pt_clust_3="49.05386"></scales>
<clustering>
<clus scale="   49.054">  1  5  2 -1</clus>
<clus scale="  384.182">  1  3  2 -1</clus>
<clus scale="  384.182">  1  3  2 -1</clus>
</clustering>
</event>
<event>
 4   0  0.3464723E-02  0.3679742E+03  0.7816531E-02  0.1055470E+00
       21   -1    0    0  503  502  0.00000000000E+00  0.00000000000E+00  0.24412265149E+03  0.24412265149E+03  0.00000000000E+00 0.  1.
       21   -1    0    0  501  503  0.00000000000E+00  0.00000000000E+00 -0.11691289727E+04  0.11691289727E+04  0.00000000000E+00 0.  1.
  1000006    1    1    2  501    0 -0.36315242493E+02  0.10763941942E+03 -0.97478422864E+03  0.10419257814E+04  0.35000000000E+03 0.  0.
 -1000006    1    1    2    0  502  0.36315242493E+02 -0.10763941942E+03  0.49777907482E+02  0.37132584279E+03  0.35000000000E+03 0.  0.
<scales pt_clust_1="13000.00000" pt_clust_2="13000.00000"></scales>
<clustering>
<clus scale="  367.974">  2  3  1 -1</clus>
<clus scale="  367.974">  1  3  2 -1</clus>
</clustering>
</event>
<event>
 5   1  0.3464723E-02  0.4553530E+03  0.7816531E-02  0.1026138E+00
       21   -1    0    0  501  502  0.00000000000E+00  0.00000000000E+00  0.92036645223E+03  0.92036645223E+03  0.00000000000E+00 0.  1.
       21   -1    0    0  502  503  0.00000000000E+00  0.00000000000E+00 -0.99917990327E+03  0.99917990327E+03  0.00000000000E+00 0.  1.
  1000006    1    1    2  501    0 -0.23376937895E+03  0.16721382208E+03  0.55775152187E+03  0.71846735832E+03  0.35000000000E+03 0.  0.
 -1000006    1    1    2    0  504 -0.41258378228E+01 -0.46732415207E+03 -0.19272613781E+03  0.61485953667E+03  0.35000000000E+03 0.  0.
       21    1    1    2  504  503  0.23789521677E+03  0.30011032999E+03 -0.44383883510E+03  0.58621946050E+03  0.00000000000E+00 0.  1.
<scales pt_clust_1="13000.00000" pt_clust_2="13000.00000" pt_clust_3="382.96259"></scales>
<clustering>
<clus scale="  382.963">  2  5  1 -1</clus>
<clus scale="  455.353">  2  4  1 -1</clus>
<clus scale="  455.353">  1  3  2 -1</clus>
</clustering>
</event>
<event>
 5   1  0.3464723E-02  0.4010991E+03  0.7816531E-02  0.1043400E+00
       -2   -1    0    0    0  501  0.00000000000E+00  0.00000000000E+00  0.13452878569E+03  0.13452878569E+03  0.00000000000E+00 0. -1.
       21   -1    0    0  501  503  0.00000000000E+00  0.00000000000E+00 -0.24218624007E+04  0.24218624007E+04  0.00000000000E+00 0.  1.
  1000006    1    1    2  502    0 -0.15203753796E+03 -0.12101222977E+03 -0.10063590655E+04  0.10830595281E+04  0.35000000000E+03 0.  0.
 -1000006    1    1    2    0  503  0.17265787214E+03  0.97338340729E+02 -0.13440119044E+04  0.14029089395E+04  0.35000000000E+03 0.  0.
       -2    1    1    2    0  502 -0.20620334177E+02  0.23673889044E+02  0.63037354911E+02  0.70422718765E+02  0.00000000000E+00 0. -1.
<scales pt_clust_1="13000.00000" pt_clust_2="13000.00000" pt_clust_3="31.39508"></scales>
<clustering>
<clus scale="   31.395">  1  5  2 -1</clus>
<clus scale="  401.099">  2  4  1 -1</clus>
<clus scale="  401.099">  2  3  1 -1</clus>
</clustering>
</event>
<event>
 5   1  0.3464723E-02  0.3508765E+03  0.7816531E-02  0.1062256E+00
       21   -1    0    0  501  503  0.00000000000E+00  0.00000000000E+00  0.12539198319E+04  0.12539198319E+04  0.00000000000E+00 0. -1.
        2   -1    0    0  503    0  0.00000000000E+00  0.00000000000E+00 -0.95145080716E+03  0.95145080716E+03  0.00000000000E+00 0.  1.
  1000006    1    1    2  501    0  0.20208289258E+02 -0.37463653310E+02  0.84795847475E+03  0.91833843172E+03  0.35000000000E+03 0.  0.
 -1000006    1    1    2    0  502  0.17587907583E+01 -0.18970308198E+02  0.28658155305E+03  0.45276036983E+03  0.35000000000E+03 0.  0.
        2    1    1    2  502    0 -0.21967080017E+02  0.56433961508E+02 -0.83207100310E+03  0.83427183748E+03  0.00000000000E+00 0.  1.
<scales pt_clust_1="13000.00000" pt_clust_2="13000.00000" pt_clust_3="60.55860"></scales>
<clustering>
<clus scale="   60.559">  2  5  1 -1</clus>
<clus scale="  350.877">  2  4  1 -1</clus>
<clus scale="  350.877">  1  3  2 -1</clus>
</clustering>
</event>
<event>
 4   0  0.3464723E-02  0.3689151E+03  0.7816531E-02  0.1055109E+00
       21   -1    0    0  501  502  0.00000000000E+00  0.00000000000E+00  0.80079638105E+03  0.80079638105E+03  0.00000000000E+00 0. -1.
       21   -1    0    0  502  503  0.00000000000E+00  0.00000000000E+00 -0.17150141071E+03  0.17150141071E+03  0.00000000000E+00 0. -1.
  1000006    1    1    2  501    0  0.59027905965E+02  0.10056852368E+03  0.36083003880E+03  0.51603937692E+03  0.35000000000E+03 0.  0.
 -1000006    1    1    2    0  503 -0.59027905965E+02 -0.10056852368E+03  0.26846493155E+03  0.45625841484E+03  0.35000000000E+03 0.  0.
<scales pt_clust_1="13000.00000" pt_clust_2="13000.00000"></scales>
<clustering>
<clus scale="  368.915">  1  3  2 -1</clus>
<clus scale="  368.915">  1  3  2 -1</clus>
</clustering>
</event>
<event>
 4   0  0.3464723E-02  0.4697484E+03  0.7816531E-02  0.1021991E+00
       21   -1    0    0  501  502  0.00000000000E+00  0.00000000000E+00  0.43309870209E+03  0.43309870209E+03  0.00000000000E+00 0. -1.
       21   -1    0    0  502  503  0.00000000000E+00  0.00000000000E+00 -0.67965402811E+03  0.67965402811E+03  0.00000000000E+00 0. -1.
  1000006    1    1    2  501    0 -0.16203480542E+03 -0.26815716141E+03  0.15510781172E+03  0.49469381908E+03  0.35000000000E+03 0.  0.
 -1000006    1    1    2    0  503  0.16203480542E+03  0.26815716141E+03 -0.40166313774E+03  0.61805891111E+03  0.35000000000E+03 0.  0.
<scales pt_clust_1="13000.00000" pt_clust_2="13000.00000"></scales>
<clustering>
<clus scale="  469.748">  1  3  2 -1</clus>
<clus scale="  469.748">  1  3  2 -1</clus>
</clustering>
</event>
<event>
 4   0  0.3464723E-02  0.3978916E+03  0.7816531E-02  0.1044512E+00
       21   -1    0    0  501  502  0.00000000000E+00  0.00000000000E+00  0.33917767999E+03  0.33917767999E+03  0.00000000000E+00 0. -1.
       21   -1    0    0  502  503  0.00000000000E+00  0.00000000000E+00 -0.49982599673E+03  0.49982599673E+03  0.00000000000E+00 0. -1.
  1000006    1    1    2  501    0 -0.16543697530E+03 -0.91914597579E+02  0.27559332906E+02  0.39884483559E+03  0.35000000000E+03 0.  0.
 -1000006    1    1    2    0  503  0.16543697530E+03  0.91914597579E+02 -0.18820764965E+03  0.44015884114E+03  0.35000000000E+03 0.  0.
<scales pt_clust_1="13000.00000" pt_clust_2="13000.00000"></scales>
<clustering>
<clus scale="  397.892">  1  3  2 -1</clus>
<clus scale="  397.892">  1  3  2 -1</clus>
</clustering>
</event>
<event>
 5   1  0.3464723E-02  0.4848994E+03  0.7816531E-02  0.1017797E+00
       21   -1    0    0  501  502  0.00000000000E+00  0.00000000000E+00  0.39291172201E+03  0.39291172201E+03  0.00000000000E+00 0. -1.
       21   -1    0    0  504  503  0.00000000000E+00  0.00000000000E+00 -0.11024617191E+04  0.11024617191E+04  0.00000000000E+00 0. -1.
  1000006    1    1    2  501    0  0.10758437911E+03 -0.32777935257E+03  0.38801205157E+02  0.49296981259E+03  0.35000000000E+03 0.  0.
 -1000006    1    1    2    0  503 -0.18862743063E+03  0.27794080152E+03 -0.76497147079E+03  0.90582158721E+03  0.35000000000E+03 0.  0.
       21    1    1    2  504  502  0.81043051520E+02  0.49838551043E+02  0.16620268573E+02  0.96582041277E+02  0.00000000000E+00 0. -1.
<scales pt_clust_1="13000.00000" pt_clust_2="13000.00000" pt_clust_3="95.14125"></scales>
<clustering>
<clus scale="   95.141">  1  5  2 -1</clus>
<clus scale="  484.899">  1  3  2 -1</clus>
<clus scale="  484.899">  1  3  2 -1</clus>
</clustering>
</event>
<event>
 5   1  0.3464723E-02  0.3761357E+03  0.7816531E-02  0.1052371E+00
        2   -1    0    0  501    0  0.00000000000E+00  0.00000000000E+00  0.18613326044E+04  0.18613326044E+04  0.00000000000E+00 0.  1.
       21   -1    0    0  502  503  0.00000000000E+00  0.00000000000E+00 -0.29281323153E+03  0.29281323153E+03  0.00000000000E+00 0.  1.
  1000006    1    1    2  501    0  0.38330550216E+02  0.32731291722E+02  0.25403864546E+03  0.43540349324E+03  0.35000000000E+03 0.  0.
 -1000006    1    1    2    0  503  0.49131381273E+02  0.27245069259E+03  0.91904789029E+02  0.45562019574E+03  0.35000000000E+03 0.  0.
        2    1    1    2  502    0 -0.87461931489E+02 -0.30518198431E+03  0.12225759384E+04  0.12631221470E+04  0.00000000000E+00 0.  1.
<scales pt_clust_1="13000.00000" pt_clust_2="13000.00000" pt_clust_3="317.46753"></scales>
<clustering>
<clus scale="  317.468">  1  5  2 -1</clus>
<clus scale="  376.136">  2  4  1 -1</clus>
<clus scale="  376.136">  2  3  1 -1</clus>
</clustering>
</event>
<event>
 6   2  0.3464723E-02  0.6172512E+03  0.7816531E-02  0.9870248E-01
       21   -1    0    0  505  502  0.00000000000E+00  0.00000000000E+00  0.31424341711E+03  0.31424341711E+03  0.00000000000E+00 0.  1.
       21   -1    0    0  504  503  0.00000000000E+00  0.00000000000E+00 -0.15822554989E+04  0.15822554989E+04  0.00000000000E+00 0. -1.
  1000006    1    1    2  501    0  0.47388802540E+03  0.25626025670E+03 -0.42513556171E+03  0.77037615852E+03  0.35000000000E+03 0.  0.
 -1000006    1    1    2    0  503 -0.44208627864E+03 -0.18801446923E+03 -0.69658282952E+03  0.91570593357E+03  0.35000000000E+03 0.  0.
       21    1    1    2  504  502 -0.16104783094E+02 -0.33297436442E+02 -0.16406604415E+03  0.16818367981E+03  0.00000000000E+00 0.  1.
       21    1    1    2  505  501 -0.15696963673E+02 -0.34948351030E+02  0.17772353589E+02  0.42233144098E+02  0.00000000000E+00 0. -1.
<scales pt_clust_1="13000.00000" pt_clust_2="13000.00000" pt_clust_3="36.98761" pt_clust_4="38.63096"></scales>
<clustering>
<clus scale="   36.988">  2  5  1 -1</clus>
<clus scale="   38.631">  1  6  2 -1</clus>
<clus scale="  617.251">  1  3  2 -1</clus>
<clus scale="  617.251">  1  3  2 -1</clus>
</clustering>
</event>
<event>
 5   1  0.3464723E-02  0.3922540E+03  0.7816531E-02  0.1046495E+00
       21   -1    0    0  501  503  0.00000000000E+00  0.00000000000E+00  0.87375909043E+03  0.87375909043E+03  0.00000000000E+00 0. -1.
        2   -1    0    0  503    0  0.00000000000E+00  0.00000000000E+00 -0.24648950100E+04  0.24648950100E+04  0.00000000000E+00 0.  1.
  1000006    1    1    2  501    0  0.22307381357E+03  0.12871952134E+03  0.61231789698E+03  0.75084209287E+03  0.35000000000E+03 0.  0.
 -1000006    1    1    2    0  502  0.10072640145E+03 -0.67658437254E+02 -0.10859049160E+02  0.37059599435E+03  0.35000000000E+03 0.  0.
        2    1    1    2  502    0 -0.32380021501E+03 -0.61061084082E+02 -0.21925947674E+04  0.22172160132E+04  0.00000000000E+00 0.  1.
<scales pt_clust_1="13000.00000" pt_clust_2="13000.00000" pt_clust_3="329.50726"></scales>
<clustering>
<clus scale="  329.507">  2  5  1 -1</clus>
<clus scale="  392.254">  1  3  2 -1</clus>
<clus scale="  392.254">  1  3  2 -1</clus>
</clustering>
</event>
<event>
 4   0  0.3464723E-02  0.3753607E+03  0.7816531E-02  0.1052662E+00
       21   -1    0    0  503  502  0.00000000000E+00  0.00000000000E+00  0.19818780675E+04  0.19818780675E+04  0.00000000000E+00 0.  1.
       21   -1    0    0  501  503  0.00000000000E+00  0.00000000000E+00 -0.20608117901E+03  0.20608117901E+03  0.00000000000E+00 0.  1.
  1000006    1    1    2  501    0 -0.13470910179E+03  0.15783502646E+02  0.24983631528E+01  0.37536902227E+03  0.35000000000E+03 0.  0.
 -1000006    1    1    2    0  502  0.13470910179E+03 -0.15783502646E+02  0.17732985254E+04  0.18125902243E+04  0.35000000000E+03 0.  0.
<scales pt_clust_1="13000.00000" pt_clust_2="13000.00000"></scales>
<clustering>
<clus scale="  375.361">  2  3  1 -1</clus>
<clus scale="  375.361">  1  3  2 -1</clus>
</clustering>
</event>
<event>
 4   0  0.3464723E-02  0.4228382E+03  0.7816531E-02  0.1036147E+00
       21   -1    0    0  501  502  0.00000000000E+00  0.00000000000E+00  0.82441411130E+02  0.82441411130E+02  0.00000000000E+00 0. -1.
       21   -1    0    0  502  503  0.00000000000E+00  0.00000000000E+00 -0.21861354386E+04  0.21861354386E+04  0.00000000000E+00 0. -1.
  1000006    1    1    2  501    0  0.14486419848E+03 -0.18790036891E+03 -0.95060162778E+03  0.10404016721E+04  0.35000000000E+03 0.  0.
 -1000006    1    1    2    0  503 -0.14486419848E+03  0.18790036891E+03 -0.11530923996E+04  0.12281751775E+04  0.35000000000E+03 0.  0.
<scales pt_clust_1="13000.00000" pt_clust_2="13000.00000"></scales>
<clustering>
<clus scale="  422.838">  1  3  2 -1</clus>
<clus scale="  422.838">  1  3  2 -1</clus>
</clustering>
</event>
<event>
 5   1  0.3464723E-02  0.4572882E+03  0.7816531E-02  0.1025571E+00
       21   -1    0    0  501  502  0.00000000000E+00  0.00000000000E+00  0.18697108807E+03  0.18697108807E+03  0.00000000000E+00 0. -1.
       21   -1    0    0  502  503  0.00000000000E+00  0.00000000000E+00 -0.13997136860E+04  0.13997136860E+04  0.00000000000E+00 0. -1.
  1000006    1    1    2  501    0 -0.24926242103E+03 -0.92322927899E+02 -0.42775432643E+03  0.61329360125E+03  0.35000000000E+03 0.  0.
 -1000006    1    1    2    0  504  0.31136015022E+03  0.10788642763E+03 -0.55299236037E+03  0.73272448781E+03  0.35000000000E+03 0.  0.
       21    1    1    2  504  503 -0.62097729193E+02 -0.15563499727E+02 -0.23199591115E+03  0.24066668503E+03  0.00000000000E+00 0. -1.
<scales pt_clust_1="13000.00000" pt_clust_2="13000.00000" pt_clust_3="64.01836"></scales>
<clustering>
<clus scale="   64.018">  2  5  1 -1</clus>
<clus scale="  457.288">  2  4  1 -1</clus>
<clus scale="  457.288">  1  3  2 -1</clus>
</clustering>
</event>
<event>
 4   0  0.3464723E-02  0.4070979E+03  0.7816531E-02  0.1041349E+00
       21   -1    0    0  501  502  0.00000000000E+00  0.00000000000E+00  0.12207153810E+04  0.12207153810E+04  0.00000000000E+00 0. -1.
       21   -1    0    0  502  503  0.00000000000E+00  0.00000000000E+00 -0.14153936472E+03  0.14153936472E+03  0.00000000000E+00 0. -1.
  1000006    1    1    2  501    0  0.20638729443E+03 -0.25159693944E+02  0.67718030701E+03  0.79012777049E+03  0.35000000000E+03 0.  0.
 -1000006    1    1    2    0  503 -0.20638729443E+03  0.25159693944E+02  0.40199570926E+03  0.57212697521E+03  0.35000000000E+03 0.  0.
<scales pt_clust_1="13000.00000" pt_clust_2="13000.00000"></scales>
<clustering>
<clus scale="  407.098">  1  3  2 -1</clus>
<clus scale="  407.098">  1  3  2 -1</clus>
</clustering>
</event>
<event>
 6   2  0.3464723E-02  0.4824974E+03  0.7816531E-02  0.1018451E+00
       21   -1    0    0  504  502  0.00000000000E+00  0.00000000000E+00  0.24567758363E+03  0.24567758363E+03  0.00000000000E+00 0. -1.
       21   -1    0    0  501  503  0.00000000000E+00  0.00000000000E+00 -0.13407123013E+04  0.13407123013E+04  0.00000000000E+00 0.  1.
  1000006    1    1    2  501    0 -0.40273923281E+02  0.38610648475E+03 -0.51130181116E+03  0.73118379944E+03  0.35000000000E+03 0.  0.
 -1000006    1    1    2    0  502  0.58128238440E+02 -0.27239410879E+03 -0.36200753599E+03  0.57543626816E+03  0.35000000000E+03 0.  0.
       21    1    1    2  504  505 -0.53599784444E+02 -0.99260844941E+02 -0.95553082511E+02  0.14783789706E+03  0.00000000000E+00 0. -1.
       21    1    1    2  505  503  0.35745469284E+02 -0.14451531020E+02 -0.12617228803E+03  0.13193192028E+03  0.00000000000E+00 0. -1.
<scales pt_clust_1="13000.00000" pt_clust_2="13000.00000" pt_clust_3="112.44524" pt_clust_4="38.55626"></scales>
<clustering>
<clus scale="   38.556">  2  6  1 -1</clus>
<clus scale="  112.445">  1  5  2 -1</clus>
<clus scale="  482.497">  2  3  1 -1</clus>
<clus scale="  482.497">  1  3  2 -1</clus>
</clustering>
</event>
<event>
 5   1  0.3464723E-02  0.3995807E+03  0.7816531E-02  0.1043925E+00
       21   -1    0    0  503  502  0.00000000000E+00  0.00000000000E+00  0.60011263617E+03  0.60011263617E+03  0.00000000000E+00 0.  1.
       21   -1    0    0  501  503  0.00000000000E+00  0.00000000000E+00 -0.51536482845E+03  0.51536482845E+03  0.00000000000E+00 0.  1.
  1000006    1    1    2  501    0  0.95818477374E+02 -0.16757978467E+03 -0.27905124242E+03  0.48747693354E+03  0.35000000000E+03 0.  0.
 -1000006    1    1    2    0  504 -0.56335407206E+02  0.18750866627E+03  0.18111803250E+03  0.44004195224E+03  0.35000000000E+03 0.  0.
       21    1    1    2  504  502 -0.39483070168E+02 -0.19928881608E+02  0.18268101765E+03  0.18795857884E+03  0.00000000000E+00 0.  1.
<scales pt_clust_1="13000.00000" pt_clust_2="13000.00000" pt_clust_3="44.22752"></scales>
<clustering>
<clus scale="   44.228">  1  5  2 -1</clus>
<clus scale="  399.581">  2  3  1 -1</clus>
<clus scale="  399.581">  1  3  2 -1</clus>
</clustering>
</event>
<event>
 4   0  0.3464723E-02  0.4309439E+03  0.7816531E-02  0.1033562E+00
       21   -1    0    0  503  502  0.00000000000E+00  0.00000000000E+00  0.11255915767E+03  0.11255915767E+03  0.00000000000E+00 0.  1.
       21   -1    0    0  501  503  0.00000000000E+00  0.00000000000E+00 -0.18945567043E+04  0.18945567043E+04  0.00000000000E+00 0.  1.
  1000006    1    1    2  501    0  0.24682381279E+03 -0.47860457947E+02 -0.12516249426E+04  0.13237362331E+04  0.35000000000E+03 0.  0.
 -1000006    1    1    2    0  502 -0.24682381279E+03  0.47860457947E+02 -0.53037260405E+03  0.68337962885E+03  0.35000000000E+03 0.  0.
<scales pt_clust_1="13000.00000" pt_clust_2="13000.00000"></scales>
<clustering>
<clus scale="  430.944">  1  4  2 -1</clus>
<clus scale="  430.944">  1  3  2 -1</clus>
</clustering>
</event>
<event>
 6   2  0.3464723E-02  0.3921052E+03  0.7816531E-02  0.1046548E+00
       21   -1    0    0  505  502  0.00000000000E+00  0.00000000000E+00  0.78980059918E+03  0.78980059918E+03  0.00000000000E+00 0.  1.
       21   -1    0    0  504  503  0.00000000000E+00  0.00000000000E+00 -0.64690035601E+03  0.64690035601E+03  0.00000000000E+00 0.  1.
  1000006    1    1    2  501    0 -0.18436046847E+03 -0.55267448834E+02 -0.38036801251E+03  0.55156422851E+03  0.35000000000E+03 0.  0.
 -1000006    1    1    2    0  502  0.24436176929E+03  0.14442333542E+03  0.35653565813E+03  0.57462026558E+03  0.35000000000E+03 0.  0.
       21    1    1    2  504  501  0.48271763033E+02  0.31382319221E+01 -0.37784163941E+02  0.61381223926E+02  0.00000000000E+00 0.  1.
       21    1    1    2  505  503 -0.10827306385E+03 -0.92294118507E+02  0.20451676149E+03  0.24913523717E+03  0.00000000000E+00 0. -1.
<scales pt_clust_1="13000.00000" pt_clust_2="13000.00000" pt_clust_3="48.37367" pt_clust_4="140.82783"></scales>
<clustering>
<clus scale="   48.374">  2  5  1 -1</clus>
<clus scale="  140.828">  1  6  2 -1</clus>
<clus scale="  392.105">  1  4  2 -1</clus>
<clus scale="  392.105">  1  3  2 -1</clus>
</clustering>
</event>
<event>
 6   2  0.3464723E-02  0.4036478E+03  0.7816531E-02  0.1042524E+00
       21   -1    0    0  501  502  0.00000000000E+00  0.00000000000E+00  0.44906898811E+03  0.44906898811E+03  0.00000000000E+00 0.  1.
       21   -1    0    0  504  503  0.00000000000E+00  0.00000000000E+00 -0.68919760882E+03  0.68919760882E+03  0.00000000000E+00 0.  1.
  1000006    1    1    2  501    0 -0.20290643314E+03 -0.98452484428E+02 -0.66857960738E+02  0.42170356794E+03  0.35000000000E+03 0.  0.
 -1000006    1    1    2    0  503  0.18980586133E+03  0.46770041180E+02 -0.31387320549E+03  0.50914643363E+03  0.35000000000E+03 0.  0.
       21    1    1    2  504  505 -0.23880460748E+02  0.22364929610E+02 -0.21124374856E+02  0.38944905893E+02  0.00000000000E+00 0. -1.
       21    1    1    2  505  502  0.36981032557E+02  0.29317513638E+02  0.16172692038E+03  0.16847168946E+03  0.00000000000E+00 0.  1.
<scales pt_clust_1="13000.00000" pt_clust_2="13000.00000" pt_clust_3="32.71798" pt_clust_4="47.16794"></scales>
<clustering>
<clus scale="   32.718">  2  5  1 -1</clus>
<clus scale="   47.168">  1  6  2 -1</clus>
<clus scale="  403.648">  2  4  1 -1</clus>
<clus scale="  403.648">  1  3  2 -1</clus>
</clustering>
</event>
<event>
 5   1  0.3464723E-02  0.3663614E+03  0.7816531E-02  0.1056093E+00
       21   -1    0    0  503  502  0.00000000000E+00  0.00000000000E+00  0.32676189526E+03  0.32676189526E+03  0.00000000000E+00 0.  1.
       21   -1    0    0  504  503  0.00000000000E+00  0.00000000000E+00 -0.10818949124E+04  0.10818949124E+04  0.00000000000E+00 0.  1.
  1000006    1    1    2  501    0 -0.20854040169E+02  0.10798097328E+03 -0.41179185600E+03  0.55151365736E+03  0.35000000000E+03 0.  0.
 -1000006    1    1    2    0  502 -0.19038129697E+02 -0.10769010546E+03  0.12477135061E+03  0.38733383422E+03  0.35000000000E+03 0.  0.
       21    1    1    2  504  501  0.39892169866E+02 -0.29086781809E+00 -0.46811251176E+03  0.46980931609E+03  0.00000000000E+00 0.  1.
<scales pt_clust_1="13000.00000" pt_clust_2="13000.00000" pt_clust_3="39.89323"></scales>
<clustering>
<clus scale="   39.893">  2  5  1 -1</clus>
<clus scale="  366.361">  2  3  1 -1</clus>
<clus scale="  366.361">  1  3  2 -1</clus>
</clustering>
</event>
<event>
 5   1  0.3464723E-02  0.3660607E+03  0.7816531E-02  0.1056210E+00
       21   -1    0    0  503  502  0.00000000000E+00  0.00000000000E+00  0.19245051287E+04  0.19245051287E+04  0.00000000000E+00 0. -1.
       21   -1    0    0  501  503  0.00000000000E+00  0.00000000000E+00 -0.12713257535E+03  0.12713257535E+03  0.00000000000E+00 0. -1.
  1000006    1    1    2  501    0 -0.10249001313E+03 -0.45701334915E+02  0.25956526474E+03  0.44996326679E+03  0.35000000000E+03 0.  0.
 -1000006    1    1    2    0  504  0.69101039266E+02  0.68450637057E+02  0.10284978271E+04  0.10907649718E+04  0.35000000000E+03 0.  0.
       21    1    1    2  504  502  0.33388973859E+02 -0.22749302142E+02  0.50930946149E+03  0.51090946545E+03  0.00000000000E+00 0. -1.
<scales pt_clust_1="13000.00000" pt_clust_2="13000.00000" pt_clust_3="40.40240"></scales>
<clustering>
<clus scale="   40.402">  1  5  2 -1</clus>
<clus scale="  366.061">  1  4  2 -1</clus>
<clus scale="  366.061">  1  3  2 -1</clus>
</clustering>
</event>
<event>
 5   1  0.3464723E-02  0.3742103E+03  0.7816531E-02  0.1053095E+00
       21   -1    0    0  501  502  0.00000000000E+00  0.00000000000E+00  0.54312417199E+03  0.54312417199E+03  0.00000000000E+00 0.  1.
       21   -1    0    0  504  503  0.00000000000E+00  0.00000000000E+00 -0.12411510600E+04  0.12411510600E+04  0.00000000000E+00 0.  1.
  1000006    1    1    2  501    0 -0.72003382951E+02  0.65123501026E+02  0.26573990235E+03  0.45004805659E+03  0.35000000000E+03 0.  0.
 -1000006    1    1    2    0  503  0.31986025047E+03  0.26892649026E+02 -0.18135615156E+03  0.50835405783E+03  0.35000000000E+03 0.  0.
       21    1    1    2  504  502 -0.24785686752E+03 -0.92016150051E+02 -0.78241063881E+03  0.82587311759E+03  0.00000000000E+00 0.  1.
<scales pt_clust_1="13000.00000" pt_clust_2="13000.00000" pt_clust_3="264.38608"></scales>
<clustering>
<clus scale="  264.386">  2  5  1 -1</clus>
<clus scale="  374.210">  2  4  1 -1</clus>
<clus scale="  374.210">  1  3  2 -1</clus>
</clustering>
</event>
<event>
 5   1  0.3464723E-02  0.3662194E+03  0.7816531E-02  0.1056148E+00
       21   -1    0    0  502  503  0.00000000000E+00  0.00000000000E+00  0.15070543866E+03  0.15070543866E+03  0.00000000000E+00 0.  1.
        2   -1    0    0  501    0  0.00000000000E+00  0.00000000000E+00 -0.22346369630E+04  0.22346369630E+04  0.00000000000E+00 0. -1.
  1000006    1    1    2  501    0 -0.88060991638E+02  0.26274258800E+02 -0.39694158465E+03  0.53712912465E+03  0.35000000000E+03 0.  0.
 -1000006    1    1    2    0  503  0.87261282471E+02 -0.96888826235E+02 -0.35805234975E+03  0.51740067765E+03  0.35000000000E+03 0.  0.
        2    1    1    2  502    0  0.79970916651E+00  0.70614567435E+02 -0.13289375900E+04  0.13308125994E+04  0.00000000000E+00 0. -1.
<scales pt_clust_1="13000.00000" pt_clust_2="13000.00000" pt_clust_3="70.61910"></scales>
<clustering>
<clus scale="   70.619">  2  5  1 -1</clus>
<clus scale="  366.219">  1  4  2 -1</clus>
<clus scale="  366.219">  1  3  2 -1</clus>
</clustering>
</event>
<event>
 5   1  0.3464723E-02  0.5659259E+03  0.7816531E-02  0.9978735E-01
       21   -1    0    0  501  503  0.00000000000E+00  0.00000000000E+00  0.75132426534E+03  0.75132426534E+03  0.00000000000E+00 0.  1.
        2   -1    0    0  503    0  0.00000000000E+00  0.00000000000E+00 -0.58313875647E+03  0.58313875647E+03  0.00000000000E+00 0.  1.
  1000006    1    1    2  501    0  0.15266889623E+03 -0.44577529706E+03  0.26242681753E+03  0.64295508545E+03  0.35000000000E+03 0.  0.
 -1000006    1    1    2    0  502 -0.10262360223E+03  0.39751972065E+03  0.39332241458E+02  0.54092564855E+03  0.35000000000E+03 0.  0.
        2    1    1    2  502    0 -0.50045294007E+02  0.48255576418E+02 -0.13357355013E+03  0.15058228781E+03  0.00000000000E+00 0.  1.
<scales pt_clust_1="13000.00000" pt_clust_2="13000.00000" pt_clust_3="69.52073"></scales>
<clustering>
<clus scale="   69.521">  2  5  1 -1</clus>
<clus scale="  565.926">  2  4  1 -1</clus>
<clus scale="  565.926">  1  3  2 -1</clus>
</clustering>
</event>
<event>
 6   2  0.3464723E-02  0.3889928E+03  0.7816531E-02  0.1047659E+00
       21   -1    0    0  504  502  0.00000000000E+00  0.00000000000E+00  0.61458176834E+03  0.61458176834E+03  0.00000000000E+00 0.  1.
       21   -1    0    0  502  503  0.00000000000E+00  0.00000000000E+00 -0.72632015291E+03  0.72632015291E+03  0.00000000000E+00 0. -1.
  1000006    1    1    2  501    0  0.62066752255E+02 -0.16045214474E+03 -0.16850908968E+03  0.42484407232E+03  0.35000000000E+03 0.  0.
 -1000006    1    1    2    0  503 -0.14867186601E+03  0.10340146281E+03 -0.31839736217E+03  0.50662813433E+03  0.35000000000E+03 0.  0.
       21    1    1    2  504  505  0.29953473319E+02  0.15579430609E+02  0.31546985973E+03  0.31727143209E+03  0.00000000000E+00 0.  1.
       21    1    1    2  505  501  0.56651640439E+02  0.41471251318E+02  0.59698207556E+02  0.92158282513E+02  0.00000000000E+00 0. -1.
<scales pt_clust_1="13000.00000" pt_clust_2="13000.00000" pt_clust_3="33.76284" pt_clust_4="78.71653"></scales>
<clustering>
<clus scale="   33.763">  1  5  2 -1</clus>
<clus scale="   78.717">  1  6  2 -1</clus>
<clus scale="  388.993">  2  4  1 -1</clus>
<clus scale="  388.993">  1  3  2 -1</clus>
</clustering>
</event>
<event>
 5   1  0.3464723E-02  0.4085071E+03  0.7816531E-02  0.1040873E+00
       21   -1    0    0  504  502  0.00000000000E+00  0.00000000000E+00  0.16822827326E+04  0.16822827326E+04  0.00000000000E+00 0.  1.
       21   -1    0    0  502  503  0.00000000000E+00  0.00000000000E+00 -0.23222856469E+03  0.23222856469E+03  0.00000000000E+00 0.  1.
  1000006    1    1    2  501    0 -0.86919346584E+01 -0.15757151259E+03  0.46864800142E+03  0.60583436725E+03  0.35000000000E+03 0.  0.
 -1000006    1    1    2    0  503  0.10342377170E+03  0.22006506909E+03  0.12407791803E+03  0.44386984684E+03  0.35000000000E+03 0.  0.
       21    1    1    2  504  501 -0.94731837042E+02 -0.62493556508E+02  0.85732824848E+03  0.86480708322E+03  0.00000000000E+00 0.  1.
<scales pt_clust_1="13000.00000" pt_clust_2="13000.00000" pt_clust_3="113.48817"></scales>
<clustering>
<clus scale="  113.488">  1  5  2 -1</clus>
<clus scale="  408.507">  1  3  2 -1</clus>
<clus scale="  408.507">  1  3  2 -1</clus>
</clustering>
</event>
<event>
 5   1  0.3464723E-02  0.3789933E+03  0.7816531E-02  0.1051306E+00
       21   -1    0    0  501  502  0.00000000000E+00  0.00000000000E+00  0.11868639621E+04  0.11868639621E+04  0.00000000000E+00 0. -1.
       21   -1    0    0  502  503  0.00000000000E+00  0.00000000000E+00 -0.17291268623E+03  0.17291268623E+03  0.00000000000E+00 0. -1.
  1000006    1    1    2  501    0  0.14295835689E+03  0.35717050238E+02  0.75335638380E+03  0.84365789304E+03  0.35000000000E+03 0.  0.
 -1000006    1    1    2    0  504 -0.12726129480E+03 -0.67786482052E+02  0.28417089280E+03  0.47333237858E+03  0.35000000000E+03 0.  0.
       21    1    1    2  504  503 -0.15697062089E+02  0.32069431813E+02 -0.23576000778E+02  0.42786376661E+02  0.00000000000E+00 0. -1.
<scales pt_clust_1="13000.00000" pt_clust_2="13000.00000" pt_clust_3="35.70499"></scales>
<clustering>
<clus scale="   35.705">  2  5  1 -1</clus>
<clus scale="  378.993">  1  3  2 -1</clus>
<clus scale="  378.993">  1  3  2 -1</clus>
</clustering>
</event>
<event>
 5   1  0.3464723E-02  0.4915754E+03  0.7816531E-02  0.1016002E+00
        1   -1    0    0  503    0  0.00000000000E+00  0.00000000000E+00  0.78184638065E+03  0.78184638065E+03  0.00000000000E+00 0. -1.
       -1   -1    0    0    0  501  0.00000000000E+00  0.00000000000E+00 -0.39734986577E+03  0.39734986577E+03  0.00000000000E+00 0.  1.
  1000006    1    1    2  502    0  0.85117494984E+02 -0.32324286638E+03 -0.34271995635E+02  0.48518605535E+03  0.35000000000E+03 0.  0.
 -1000006    1    1    2    0  501 -0.11552856816E+03  0.35113211789E+03  0.36575706826E+03  0.62683239168E+03  0.35000000000E+03 0.  0.
       21    1    1    2  503  502  0.30411073179E+02 -0.27889251511E+02  0.53011442251E+02  0.67177799393E+02  0.00000000000E+00 0.  1.
<scales pt_clust_1="13000.00000" pt_clust_2="13000.00000" pt_clust_3="41.26310"></scales>
<clustering>
<clus scale="   41.263">  1  5  2 -1</clus>
<clus scale="  870.345">  3  4 -1 -1</clus>
<clus scale="  491.575">  1  3  2 -1</clus>
</clustering>
</event>
<event>
 5   1  0.3464723E-02  0.4448760E+03  0.7816531E-02  0.1029261E+00
       21   -1    0    0  504  502  0.00000000000E+00  0.00000000000E+00  0.14985003275E+04  0.14985003275E+04  0.00000000000E+00 0. -1.
       21   -1    0    0  502  503  0.00000000000E+00  0.00000000000E+00 -0.14690349902E+03  0.14690349902E+03  0.00000000000E+00 0. -1.
  1000006    1    1    2  501    0  0.24027066368E+03  0.14011950202E+03  0.71635489330E+03  0.84440973456E+03  0.35000000000E+03 0.  0.
 -1000006    1    1    2    0  503 -0.25353893202E+03 -0.10150146012E+03  0.55280190790E+03  0.70899540608E+03  0.35000000000E+03 0.  0.
       21    1    1    2  504  501  0.13268268342E+02 -0.38618041900E+02  0.82440027244E+02  0.91998685844E+02  0.00000000000E+00 0.  1.
<scales pt_clust_1="13000.00000" pt_clust_2="13000.00000" pt_clust_3="40.83381"></scales>
<clustering>
<clus scale="   40.834">  1  5  2 -1</clus>
<clus scale="  444.876">  2  4  1 -1</clus>
<clus scale="  444.876">  1  3  2 -1</clus>
</clustering>
</event>
<event>
 6   2  0.3464723E-02  0.4033915E+03  0.7816531E-02  0.1042612E+00
       21   -1    0    0  504  502  0.00000000000E+00  0.00000000000E+00  0.27043091416E+03  0.27043091416E+03  0.00000000000E+00 0. -1.
       21   -1    0    0  505  503  0.00000000000E+00  0.00000000000E+00 -0.93381718388E+03  0.93381718388E+03  0.00000000000E+00 0.  1.
  1000006    1    1    2  501    0 -0.69420462359E+02  0.17515017214E+03 -0.28042330773E+03  0.48645042390E+03  0.35000000000E+03 0.  0.
 -1000006    1    1    2    0  502  0.13712839912E+03 -0.16835263183E+03 -0.19727678291E+03  0.45668910165E+03  0.35000000000E+03 0.  0.
       21    1    1    2  504  503 -0.32072555558E+02 -0.58675935631E+01  0.28907444798E+02  0.43574279558E+02  0.00000000000E+00 0.  1.
       21    1    1    2  505  501 -0.35635381207E+02 -0.92994674631E+00 -0.21459362387E+03  0.21753429293E+03  0.00000000000E+00 0.  1.
<scales pt_clust_1="13000.00000" pt_clust_2="13000.00000" pt_clust_3="32.60487" pt_clust_4="35.84978"></scales>
<clustering>
<clus scale="   32.605">  1  5  2 -1</clus>
<clus scale="   35.850">  2  6  1 -1</clus>
<clus scale="  403.392">  1  4  2 -1</clus>
<clus scale="  403.392">  1  3  2 -1</clus>
</clustering>
</event>
<event>
 6   2  0.3464723E-02  0.3960243E+03  0.7816531E-02  0.1045165E+00
       21   -1    0    0  501  502  0.00000000000E+00  0.00000000000E+00  0.62933668208E+03  0.62933668208E+03  0.00000000000E+00 0.  1.
       21   -1    0    0  504  503  0.00000000000E+00  0.00000000000E+00 -0.37542166150E+03  0.37542166150E+03  0.00000000000E+00 0.  1.
  1000006    1    1    2  501    0  0.17409790960E+03  0.55552379559E+02  0.34388577723E+03  0.52359676926E+03  0.35000000000E+03 0.  0.
 -1000006    1    1    2    0  503 -0.16274348723E+03 -0.38989999554E+02 -0.95395190552E+02  0.39950707764E+03  0.35000000000E+03 0.  0.
       21    1    1    2  504  505 -0.32938101484E+02  0.45983474054E+01 -0.22781431537E+02  0.40311995127E+02  0.00000000000E+00 0.  1.
       21    1    1    2  505  502  0.21583679117E+02 -0.21160727410E+02  0.28205865441E+02  0.41342501545E+02  0.00000000000E+00 0. -1.
<scales pt_clust_1="13000.00000" pt_clust_2="13000.00000" pt_clust_3="32.90033" pt_clust_4="30.22634"></scales>
<clustering>
<clus scale="   30.226">  1  6  2 -1</clus>
<clus scale="   32.900">  2  5  1 -1</clus>
<clus scale="  396.024">  2  4  1 -1</clus>
<clus scale="  396.024">  1  3  2 -1</clus>
</clustering>
</event>
<event>
 5   1  0.3464723E-02  0.3750421E+03  0.7816531E-02  0.1052782E+00
       21   -1    0    0  504  502  0.00000000000E+00  0.00000000000E+00  0.86437084977E+03  0.86437084977E+03  0.00000000000E+00 0.  1.
       21   -1    0    0  502  503  0.00000000000E+00  0.00000000000E+00 -0.73188704727E+03  0.73188704727E+03  0.00000000000E+00 0.  1.
  1000006    1    1    2  501    0  0.86574553306E+02 -0.66583940224E+02  0.24568209947E+03  0.44134823935E+03  0.35000000000E+03 0.  0.
 -1000006    1    1    2    0  503 -0.88782561905E+02  0.10734924879E+03 -0.57712641474E+03  0.68918872822E+03  0.35000000000E+03 0.  0.
       21    1    1    2  504  501  0.22080085993E+01 -0.40765308564E+02  0.46392811778E+03  0.46572092948E+03  0.00000000000E+00 0.  1.
<scales pt_clust_1="13000.00000" pt_clust_2="13000.00000" pt_clust_3="40.82506"></scales>
<clustering>
<clus scale="   40.825">  1  5  2 -1</clus>
<clus scale="  375.042">  1  3  2 -1</clus>
<clus scale="  375.042">  1  3  2 -1</clus>
</clustering>
</event>
<event>
 5   1  0.3464723E-02  0.6654455E+03  0.7816531E-02  0.9778221E-01
        1   -1    0    0  501    0  0.00000000000E+00  0.00000000000E+00  0.64547564256E+03  0.64547564256E+03  0.00000000000E+00 0.  1.
       21   -1    0    0  502  503  0.00000000000E+00  0.00000000000E+00 -0.82258823196E+03  0.82258823196E+03  0.00000000000E+00 0. -1.
  1000006    1    1    2  501    0 -0.53690056274E+03 -0.12080560341E+03 -0.30435482289E+03  0.71971387808E+03  0.35000000000E+03 0.  0.
 -1000006    1    1    2    0  503  0.57051011191E+03  0.73034069337E+02  0.14201306794E+03  0.68810135485E+03  0.35000000000E+03 0.  0.
        1    1    1    2  502    0 -0.33609549177E+02  0.47771534078E+02 -0.14770834459E+02  0.60248641600E+02  0.00000000000E+00 0.  1.
<scales pt_clust_1="13000.00000" pt_clust_2="13000.00000" pt_clust_3="58.40994"></scales>
<clustering>
<clus scale="   58.410">  2  5  1 -1</clus>
<clus scale=" 1258.840">  3  4 -1 -1</clus>
<clus scale="  665.446">  2  3  1 -1</clus>
</clustering>
</event>
<event>
 6   2  0.3464723E-02  0.6547128E+03  0.7816531E-02  0.9797976E-01
       21   -1    0    0  503  502  0.00000000000E+00  0.00000000000E+00  0.79175600008E+03  0.79175600008E+03  0.00000000000E+00 0.  1.
       21   -1    0    0  504  503  0.00000000000E+00  0.00000000000E+00 -0.18168077823E+04  0.18168077823E+04  0.00000000000E+00 0. -1.
  1000006    1    1    2  501    0  0.63040710924E+03  0.41408308846E+03 -0.55647106439E+03  0.10005188519E+04  0.35000000000E+03 0.  0.
 -1000006    1    1    2    0  502 -0.32323145868E+03 -0.39558829393E+03  0.31972882789E+03  0.69691835788E+03  0.35000000000E+03 0.  0.
       21    1    1    2  504  505  0.41809320703E+02 -0.22159788293E+02 -0.33854396654E+03  0.34183489113E+03  0.00000000000E+00 0. -1.
       21    1    1    2  505  501 -0.34898497126E+03  0.36649937586E+01 -0.44976557914E+03  0.56929168142E+03  0.00000000000E+00 0. -1.
<scales pt_clust_1="13000.00000" pt_clust_2="13000.00000" pt_clust_3="47.31887" pt_clust_4="334.58175"></scales>
<clustering>
<clus scale="   47.319">  2  5  1 -1</clus>
<clus scale="  334.582">  2  6  1 -1</clus>
<clus scale="  654.713">  2  3  1 -1</clus>
<clus scale="  654.713">  1  3  2 -1</clus>
</clustering>
</event>
<event>
 4   0  0.3464723E-02  0.4471276E+03  0.7816531E-02  0.1028582E+00
       21   -1    0    0  501  502  0.00000000000E+00  0.00000000000E+00  0.47523195462E+03  0.47523195462E+03  0.00000000000E+00 0.  1.
       21   -1    0    0  502  503  0.00000000000E+00  0.00000000000E+00 -0.52886733085E+03  0.52886733085E+03  0.00000000000E+00 0.  1.
  1000006    1    1    2  501    0  0.24557924807E+03 -0.13082006046E+03  0.20024775002E+03  0.48992062285E+03  0.35000000000E+03 0.  0.
 -1000006    1    1    2    0  503 -0.24557924807E+03  0.13082006046E+03 -0.25388312624E+03  0.51417866262E+03  0.35000000000E+03 0.  0.
<scales pt_clust_1="13000.00000" pt_clust_2="13000.00000"></scales>
<clustering>
<clus scale="  447.128">  1  3  2 -1</clus>
<clus scale="  447.128">  1  3  2 -1</clus>
</clustering>
</event>
<event>
 4   0  0.3464723E-02  0.3698680E+03  0.7816531E-02  0.1054743E+00
       21   -1    0    0  503  502  0.00000000000E+00  0.00000000000E+00  0.39574426609E+03  0.39574426609E+03  0.00000000000E+00 0. -1.
       21   -1    0    0  501  503  0.00000000000E+00  0.00000000000E+00 -0.35019635327E+03  0.35019635327E+03  0.00000000000E+00 0. -1.
  1000006    1    1    2  501    0 -0.11135895252E+03  0.43606737048E+02 -0.19564186047E+02  0.37038509851E+03  0.35000000000E+03 0.  0.
 -1000006    1    1    2    0  502  0.11135895252E+03 -0.43606737048E+02  0.65112098870E+02  0.37555552085E+03  0.35000000000E+03 0.  0.
<scales pt_clust_1="13000.00000" pt_clust_2="13000.00000"></scales>
<clustering>
<clus scale="  369.868">  2  3  1 -1</clus>
<clus scale="  369.868">  1  3  2 -1</clus>
</clustering>
</event>
<event>
 5   1  0.3464723E-02  0.5746303E+03  0.7816531E-02  0.9959484E-01
       21   -1    0    0  504  502  0.00000000000E+00  0.00000000000E+00  0.71081065513E+03  0.71081065513E+03  0.00000000000E+00 0. -1.
       21   -1    0    0  501  503  0.00000000000E+00  0.00000000000E+00 -0.93247687230E+03  0.93247687230E+03  0.00000000000E+00 0. -1.
  1000006    1    1    2  501    0  0.42792929549E+03 -0.93851971721E+02 -0.14942288514E+03  0.58030929093E+03  0.35000000000E+03 0.  0.
 -1000006    1    1    2    0  502 -0.45915341735E+03  0.69092518000E+02  0.32339238414E+03  0.66534071785E+03  0.35000000000E+03 0.  0.
       21    1    1    2  504  503  0.31224121862E+02  0.24759453721E+02 -0.39563571617E+03  0.39763751866E+03  0.00000000000E+00 0. -1.
<scales pt_clust_1="13000.00000" pt_clust_2="13000.00000" pt_clust_3="39.84942"></scales>
<clustering>
<clus scale="   39.849">  2  5  1 -1</clus>
<clus scale="  574.630">  1  4  2 -1</clus>
<clus scale="  574.630">  1  3  2 -1</clus>
</clustering>
</event>
<event>
 5   1  0.3464723E-02  0.7074826E+03  0.7816531E-02  0.9704521E-01
       21   -1    0    0  504  502  0.00000000000E+00  0.00000000000E+00  0.98649938956E+03  0.98649938956E+03  0.00000000000E+00 0.  1.
       21   -1    0    0  501  503  0.00000000000E+00  0.00000000000E+00 -0.60028149217E+03  0.60028149217E+03  0.00000000000E+00 0. -1.
  1000006    1    1    2  501    0 -0.45099686272E+03 -0.40026245695E+03 -0.19971139074E+02  0.69750057421E+03  0.35000000000E+03 0.  0.
 -1000006    1    1    2    0  502  0.49355549678E+03  0.39898007397E+03  0.31821553253E+03  0.79154485215E+03  0.35000000000E+03 0.  0.
       21    1    1    2  504  503 -0.42558634060E+02  0.12823829850E+01  0.87973503934E+02  0.97735455356E+02  0.00000000000E+00 0.  1.
<scales pt_clust_1="13000.00000" pt_clust_2="13000.00000" pt_clust_3="42.57795"></scales>
<clustering>
<clus scale="   42.578">  1  5  2 -1</clus>
<clus scale="  707.483">  1  4  2 -1</clus>
<clus scale="  707.483">  1  3  2 -1</clus>
</clustering>
</event>
<event>
 5   1  0.3464723E-02  0.3729175E+03  0.7816531E-02  0.1053583E+00
       21   -1    0    0  501  502  0.00000000000E+00  0.00000000000E+00  0.13724997874E+03  0.13724997874E+03  0.00000000000E+00 0. -1.
       21   -1    0    0  504  503  0.00000000000E+00  0.00000000000E+00 -0.12018778020E+04  0.12018778020E+04  0.00000000000E+00 0. -1.
  1000006    1    1    2  501    0 -0.12239971252E+03  0.70422090569E+02 -0.32592018489E+03  0.49866314019E+03  0.35000000000E+03 0.  0.
 -1000006    1    1    2    0  503  0.92184969141E+02 -0.54888381610E+02 -0.65972702790E+03  0.75448694774E+03  0.35000000000E+03 0.  0.
       21    1    1    2  504  502  0.30214743382E+02 -0.15533708959E+02 -0.78980610477E+02  0.85977692822E+02  0.00000000000E+00 0. -1.
<scales pt_clust_1="13000.00000" pt_clust_2="13000.00000" pt_clust_3="33.97391"></scales>
<clustering>
<clus scale="   33.974">  2  5  1 -1</clus>
<clus scale="  372.918">  1  3  2 -1</clus>
<clus scale="  372.918">  1  3  2 -1</clus>
</clustering>
</event>
<event>
 6   2  0.3464723E-02  0.4533716E+03  0.7816531E-02  0.1026721E+00
       21   -1    0    0  502  503  0.00000000000E+00  0.00000000000E+00  0.25511705722E+03  0.25511705722E+03  0.00000000000E+00 0. -1.
        2   -1    0    0  501    0  0.00000000000E+00  0.00000000000E+00 -0.23906974684E+04  0.23906974684E+04  0.00000000000E+00 0. -1.
  1000006    1    1    2  501    0 -0.16163663371E+03 -0.24826371577E+03 -0.60381455871E+03  0.75819080398E+03  0.35000000000E+03 0.  0.
 -1000006    1    1    2    0  504  0.76104401420E+02  0.26886916822E+03 -0.21148524294E+03  0.49528629853E+03  0.35000000000E+03 0.  0.
       21    1    1    2  504  503  0.58475436747E+02 -0.40685831821E+01  0.11872400021E+02  0.59807056057E+02  0.00000000000E+00 0. -1.
        2    1    1    2  502    0  0.27056795545E+02 -0.16536869274E+02 -0.13321530096E+04  0.13325303670E+04  0.00000000000E+00 0. -1.
<scales pt_clust_1="13000.00000" pt_clust_2="13000.00000" pt_clust_3="59.25497" pt_clust_4="31.71022"></scales>
<clustering>
<clus scale="   31.710">  2  6  1 -1</clus>
<clus scale="   59.255">  1  5  2 -1</clus>
<clus scale="  453.372">  2  3  1 -1</clus>
<clus scale="  453.372">  1  3  2 -1</clus>
</clustering>
</event>
<event>
 4   0  0.3464723E-02  0.3530336E+03  0.7816531E-02  0.1061377E+00
       21   -1    0    0  501  502  0.00000000000E+00  0.00000000000E+00  0.83234172166E+03  0.83234172166E+03  0.00000000000E+00 0.  1.
       21   -1    0    0  502  503  0.00000000000E+00  0.00000000000E+00 -0.20890086458E+03  0.20890086458E+03  0.00000000000E+00 0.  1.
  1000006    1    1    2  501    0 -0.26468174523E+02  0.37843914528E+02  0.58878336125E+03  0.68651188818E+03  0.35000000000E+03 0.  0.
 -1000006    1    1    2    0  503  0.26468174523E+02 -0.37843914528E+02  0.34657495837E+02  0.35473069806E+03  0.35000000000E+03 0.  0.
<scales pt_clust_1="13000.00000" pt_clust_2="13000.00000"></scales>
<clustering>
<clus scale="  353.034">  1  3  2 -1</clus>
<clus scale="  353.034">  1  3  2 -1</clus>
</clustering>
</event>
<event>
 4   0  0.3464723E-02  0.4961809E+03  0.7816531E-02  0.1014781E+00
       21   -1    0    0  501  502  0.00000000000E+00  0.00000000000E+00  0.27796664581E+03  0.27796664581E+03  0.00000000000E+00 0. -1.
       21   -1    0    0  502  503  0.00000000000E+00  0.00000000000E+00 -0.98604246688E+03  0.98604246688E+03  0.00000000000E+00 0.  1.
  1000006    1    1    2  501    0 -0.31276374785E+03  0.16085493236E+03 -0.15242814212E+03  0.51906628647E+03  0.35000000000E+03 0.  0.
 -1000006    1    1    2    0  503  0.31276374785E+03 -0.16085493236E+03 -0.55564767895E+03  0.74494282623E+03  0.35000000000E+03 0.  0.
<scales pt_clust_1="13000.00000" pt_clust_2="13000.00000"></scales>
<clustering>
<clus scale="  496.181">  1  3  2 -1</clus>
<clus scale="  496.181">  1  3  2 -1</clus>
</clustering>
</event>
<event>
 5   1  0.3464723E-02  0.3786594E+03  0.7816531E-02  0.1051430E+00
       21   -1    0    0  504  502  0.00000000000E+00  0.00000000000E+00  0.14931774318E+04  0.14931774318E+04  0.00000000000E+00 0.  1.
       21   -1    0    0  501  503  0.00000000000E+00  0.00000000000E+00 -0.29200775109E+03  0.29200775109E+03  0.00000000000E+00 0.  1.
  1000006    1    1    2  501    0 -0.10084318747E+01 -0.13535653625E+03  0.55428981469E+02  0.37933465545E+03  0.35000000000E+03 0.  0.
 -1000006    1    1    2    0  502 -0.45184670724E+02  0.15367296259E+03  0.15673853359E+03  0.41560077215E+03  0.35000000000E+03 0.  0.
       21    1    1    2  504  503  0.46193102598E+02 -0.18316426339E+02  0.98900216566E+03  0.99024975531E+03  0.00000000000E+00 0.  1.
<scales pt_clust_1="13000.00000" pt_clust_2="13000.00000" pt_clust_3="49.69199"></scales>
<clustering>
<clus scale="   49.692">  1  5  2 -1</clus>
<clus scale="  378.659">  2  3  1 -1</clus>
<clus scale="  378.659">  1  3  2 -1</clus>
</clustering>
</event>
<event>
 6   2  0.3464723E-02  0.3954857E+03  0.7816531E-02  0.1045354E+00
       21   -1    0    0  505  502  0.00000000000E+00  0.00000000000E+00  0.97806830200E+03  0.97806830200E+03  0.00000000000E+00 0.  1.
       21   -1    0    0  501  503  0.00000000000E+00  0.00000000000E+00 -0.58636708317E+03  0.58636708317E+03  0.00000000000E+00 0.  1.
  1000006    1    1    2  501    0 -0.30299761260E+03 -0.80460562061E+02  0.16997490942E+03  0.49967281807E+03  0.35000000000E+03 0.  0.
 -1000006    1    1    2    0  502  0.41740093896E+02  0.16352752704E+03  0.44472830857E+03  0.59056477712E+03  0.35000000000E+03 0.  0.
       21    1    1    2  504  503  0.58175228067E+02 -0.42953365836E+01 -0.24816152846E+03  0.25492538376E+03  0.00000000000E+00 0.  1.
       21    1    1    2  505  504  0.20308229064E+03 -0.78771628398E+02  0.25159529307E+02  0.21927240621E+03  0.00000000000E+00 0.  1.
<scales pt_clust_1="13000.00000" pt_clust_2="13000.00000" pt_clust_3="58.33358" pt_clust_4="234.04872"></scales>
<clustering>
<clus scale="   58.334">  2  5  1 -1</clus>
<clus scale="  234.049">  2  6  1 -1</clus>
<clus scale="  395.486">  1  4  2 -1</clus>
<clus scale="  395.486">  1  3  2 -1</clus>
</clustering>
</event>
<event>
 5   1  0.3464723E-02  0.4023569E+03  0.7816531E-02  0.1042967E+00
       21   -1    0    0  501  502  0.00000000000E+00  0.00000000000E+00  0.13529591813E+04  0.13529591813E+04  0.00000000000E+00 0.  1.
       21   -1    0    0  504  503  0.00000000000E+00  0.00000000000E+00 -0.44487641209E+03  0.44487641209E+03  0.00000000000E+00 0.  1.
  1000006    1    1    2  501    0 -0.14839134158E+03 -0.13042915651E+03  0.11967217994E+04  0.12624083414E+04  0.35000000000E+03 0.  0.
 -1000006    1    1    2    0  503  0.18219935743E+03  0.10896200275E+03 -0.27488606070E+03  0.49308383695E+03  0.35000000000E+03 0.  0.
       21    1    1    2  504  502 -0.33808015855E+02  0.21467153764E+02 -0.13752969540E+02  0.42343415048E+02  0.00000000000E+00 0.  1.
<scales pt_clust_1="13000.00000" pt_clust_2="13000.00000" pt_clust_3="40.04773"></scales>
<clustering>
<clus scale="   40.048">  2  5  1 -1</clus>
<clus scale="  402.357">  2  4  1 -1</clus>
<clus scale="  402.357">  1  3  2 -1</clus>
</clustering>
</event>
<event>
 4   0  0.3464723E-02  0.4010738E+03  0.7816531E-02  0.1043408E+00
       21   -1    0    0  503  502  0.00000000000E+00  0.00000000000E+00  0.44215892897E+03  0.44215892897E+03  0.00000000000E+00 0. -1.
       21   -1    0    0  501  503  0.00000000000E+00  0.00000000000E+00 -0.39321502183E+03  0.39321502183E+03  0.00000000000E+00 0. -1.
  1000006    1    1    2  501    0  0.45537443714E+02  0.19049020295E+03 -0.89756532526E+02  0.41099441764E+03  0.35000000000E+03 0.  0.
 -1000006    1    1    2    0  502 -0.45537443714E+02 -0.19049020295E+03  0.13870043967E+03  0.42437953316E+03  0.35000000000E+03 0.  0.
<scales pt_clust_1="13000.00000" pt_clust_2="13000.00000"></scales>
<clustering>
<clus scale="  401.074">  2  3  1 -1</clus>
<clus scale="  401.074">  1  3  2 -1</clus>
</clustering>
</event>
<event>
 5   1  0.3464723E-02  0.3634093E+03  0.7816531E-02  0.1057242E+00
       21   -1    0    0  501  502  0.00000000000E+00  0.00000000000E+00  0.17521767455E+03  0.17521767455E+03  0.00000000000E+00 0. -1.
       21   -1    0    0  504  503  0.00000000000E+00  0.00000000000E+00 -0.11531148475E+04  0.11531148475E+04  0.00000000000E+00 0. -1.
  1000006    1    1    2  501    0  0.90344525384E+02 -0.65098365417E+02 -0.20775594232E+03  0.42197448029E+03  0.35000000000E+03 0.  0.
 -1000006    1    1    2    0  503 -0.88113901202E+02 -0.14007624547E+01 -0.43766258415E+03  0.56728701667E+03  0.35000000000E+03 0.  0.
       21    1    1    2  504  502 -0.22306241824E+01  0.66499127871E+02 -0.33247864643E+03  0.33907102505E+03  0.00000000000E+00 0.  1.
<scales pt_clust_1="13000.00000" pt_clust_2="13000.00000" pt_clust_3="66.53653"></scales>
<clustering>
<clus scale="   66.537">  2  5  1 -1</clus>
<clus scale="  363.409">  1  3  2 -1</clus>
<clus scale="  363.409">  1  3  2 -1</clus>
</clustering>
</event>
<event>
 6   2  0.3464723E-02  0.4209029E+03  0.7816531E-02  0.1036773E+00
       21   -1    0    0  504  502  0.00000000000E+00  0.00000000000E+00  0.26761570959E+03  0.26761570959E+03  0.00000000000E+00 0.  1.
       21   -1    0    0  505  503  0.00000000000E+00  0.00000000000E+00 -0.15422012652E+04  0.15422012652E+04  0.00000000000E+00 0.  1.
  1000006    1    1    2  501    0 -0.31328889798E+03  0.68193708045E+02 -0.45231865905E+03  0.65566186769E+03  0.35000000000E+03 0.  0.
 -1000006    1    1    2    0  503  0.16310078139E+03  0.93832395795E+02 -0.44176035740E+03  0.59418734147E+03  0.35000000000E+03 0.  0.
       21    1    1    2  504  501  0.99519727257E+02 -0.14680519888E+03 -0.15794858963E+01  0.17736526522E+03  0.00000000000E+00 0.  1.
       21    1    1    2  505  502  0.50668389330E+02 -0.15220904964E+02 -0.37892705325E+03  0.38260250040E+03  0.00000000000E+00 0.  1.
<scales pt_clust_1="13000.00000" pt_clust_2="13000.00000" pt_clust_3="180.53735" pt_clust_4="52.90521"></scales>
<clustering>
<clus scale="   52.905">  2  6  1 -1</clus>
<clus scale="  180.537">  1  5  2 -1</clus>
<clus scale="  420.903">  2  4  1 -1</clus>
<clus scale="  420.903">  1  3  2 -1</clus>
</clustering>
</event>
<event>
 6   2  0.3464723E-02  0.3538469E+03  0.7816531E-02  0.1061047E+00
       21   -1    0    0  504  502  0.00000000000E+00  0.00000000000E+00  0.10429947320E+04  0.10429947320E+04  0.00000000000E+00 0. -1.
       21   -1    0    0  505  503  0.00000000000E+00  0.00000000000E+00 -0.60822639715E+03  0.60822639715E+03  0.00000000000E+00 0. -1.
  1000006    1    1    2  501    0 -0.10261241268E+03  0.26704229278E+02  0.18155725460E+03  0.40829579938E+03  0.35000000000E+03 0.  0.
 -1000006    1    1    2    0  503 -0.69062701725E+02 -0.57938566807E+01 -0.20802888446E+03  0.41301239971E+03  0.35000000000E+03 0.  0.
       21    1    1    2  504  501  0.11607110171E+02 -0.67241442814E+02  0.60560500503E+03  0.60943708351E+03  0.00000000000E+00 0. -1.
       21    1    1    2  505  502  0.16006800423E+03  0.46331070217E+02 -0.14436504031E+03  0.22047584655E+03  0.00000000000E+00 0. -1.
<scales pt_clust_1="13000.00000" pt_clust_2="13000.00000" pt_clust_3="68.23589" pt_clust_4="166.08468"></scales>
<clustering>
<clus scale="   68.236">  1  5  2 -1</clus>
<clus scale="  166.085">  2  6  1 -1</clus>
<clus scale="  353.847">  2  4  1 -1</clus>
<clus scale="  353.847">  1  3  2 -1</clus>
</clustering>
</event>
<event>
 4   0  0.3464723E-02  0.4483597E+03  0.7816531E-02  0.1028212E+00
       -2   -1    0    0    0  501  0.00000000000E+00  0.00000000000E+00  0.13765811738E+03  0.13765811738E+03  0.00000000000E+00 0. -1.
        2   -1    0    0  502    0  0.00000000000E+00  0.00000000000E+00 -0.14938250515E+04  0.14938250515E+04  0.00000000000E+00 0.  1.
  1000006    1    1    2  502    0  0.14853704090E+03 -0.23761976517E+03 -0.80023167163E+03  0.91727702118E+03  0.35000000000E+03 0.  0.
 -1000006    1    1    2    0  501 -0.14853704090E+03  0.23761976517E+03 -0.55593526244E+03  0.71420614765E+03  0.35000000000E+03 0.  0.
<scales pt_clust_1="13000.00000" pt_clust_2="13000.00000"></scales>
<clustering>
<clus scale="  674.573">  3  4 -1 -1</clus>
<clus scale="  448.360">  2  3  1 -1</clus>
</clustering>
</event>
<event>
 5   1  0.3464723E-02  0.3917078E+03  0.7816531E-02  0.1046689E+00
        1   -1    0    0  503    0  0.00000000000E+00  0.00000000000E+00  0.17136149161E+04  0.17136149161E+04  0.00000000000E+00 0.  1.
       21   -1    0    0  501  503  0.00000000000E+00  0.00000000000E+00 -0.16880769649E+03  0.16880769649E+03  0.00000000000E+00 0.  1.
  1000006    1    1    2  501    0  0.14452194713E+03 -0.12766182094E+03  0.17769394015E+03  0.43733199071E+03  0.35000000000E+03 0.  0.
 -1000006    1    1    2    0  502 -0.48995819849E+02  0.11245717481E+03  0.11147048801E+04  0.11747826081E+04  0.35000000000E+03 0.  0.
        1    1    1    2  502    0 -0.95526127279E+02  0.15204646136E+02  0.25240839928E+03  0.27030801373E+03  0.00000000000E+00 0.  1.
<scales pt_clust_1="13000.00000" pt_clust_2="13000.00000" pt_clust_3="96.72860"></scales>
<clustering>
<clus scale="   96.729">  1  5  2 -1</clus>
<clus scale="  391.708">  2  3  1 -1</clus>
<clus scale="  391.708">  2  3  1 -1</clus>
</clustering>
</event>
<event>
 6   2  0.3464723E-02  0.5950753E+03  0.7816531E-02  0.9915676E-01
       21   -1    0    0  501  502  0.00000000000E+00  0.00000000000E+00  0.25863264756E+04  0.25863264756E+04  0.00000000000E+00 0.  1.
       21   -1    0    0  505  503  0.00000000000E+00  0.00000000000E+00 -0.39768165946E+03  0.39768165946E+03  0.00000000000E+00 0. -1.
  1000006    1    1    2  501    0  0.45437882824E+03 -0.15065736913E+03  0.16885893250E+04  0.17896903841E+04  0.35000000000E+03 0.  0.
 -1000006    1    1    2    0  503 -0.57615298513E+03 -0.13829351245E+03  0.16354973579E+03  0.70733717132E+03  0.35000000000E+03 0.  0.
       21    1    1    2  504  502  0.37273198835E+01  0.64077850550E+02  0.17401191356E+03  0.18547239662E+03  0.00000000000E+00 0. -1.
       21    1    1    2  505  504  0.11804683701E+03  0.22487303103E+03  0.16249384179E+03  0.30150818302E+03  0.00000000000E+00 0. -1.
<scales pt_clust_1="13000.00000" pt_clust_2="13000.00000" pt_clust_3="64.18617" pt_clust_4="259.62331"></scales>
<clustering>
<clus scale="   64.186">  1  5  2 -1</clus>
<clus scale="  259.623">  2  6  1 -1</clus>
<clus scale="  595.075">  1  3  2 -1</clus>
<clus scale="  595.075">  1  3  2 -1</clus>
</clustering>
</event>
<event>
 6   2  0.3464723E-02  0.3826169E+03  0.7816531E-02  0.1049971E+00
       21   -1    0    0  501  503  0.00000000000E+00  0.00000000000E+00  0.31773999627E+03  0.31773999627E+03  0.00000000000E+00 0. -1.
       21   -1    0    0  502  504  0.00000000000E+00  0.00000000000E+00 -0.94798578155E+03  0.94798578155E+03  0.00000000000E+00 0.  1.
  1000006    1    1    2  501    0 -0.23389767679E+03 -0.41893348502E+02 -0.27842020005E+02  0.42395560373E+03  0.35000000000E+03 0.  0.
 -1000006    1    1    2    0  504  0.36812928987E+02  0.20304450199E+02 -0.27239778772E+03  0.44549749404E+03  0.35000000000E+03 0.  0.
        2    1    1    2  502    0  0.17755209385E+03 -0.35092141419E+01 -0.31383116553E+03  0.36059265255E+03  0.00000000000E+00 0.  1.
       -2    1    1    2    0  503  0.19532653954E+02  0.25098112445E+02 -0.16174812013E+02  0.35680027500E+02  0.00000000000E+00 0. -1.
<scales pt_clust_1="13000.00000" pt_clust_2="13000.00000" pt_clust_3="179.04209" pt_clust_4="31.80314"></scales>
<clustering>
<clus scale="   31.803">  1  6  2 -1</clus>
<clus scale="  179.042">  2  5  1 -1</clus>
<clus scale="  508.917">  3  4 -1 -1</clus>
<clus scale="  382.617">  1  3  2 -1</clus>
</clustering>
</event>
<event>
 6   2  0.3464723E-02  0.3870281E+03  0.7816531E-02  0.1048366E+00
       21   -1    0    0  505  502  0.00000000000E+00  0.00000000000E+00  0.53801848080E+03  0.53801848080E+03  0.00000000000E+00 0.  1.
       21   -1    0    0  504  503  0.00000000000E+00  0.00000000000E+00 -0.13600598741E+04  0.13600598741E+04  0.00000000000E+00 0.  1.
  1000006    1    1    2  501    0 -0.10158942737E+03  0.16397538287E+03 -0.47729774091E+03  0.62251222592E+03  0.35000000000E+03 0.  0.
 -1000006    1    1    2    0  503  0.11990578423E+03 -0.93134253718E+02 -0.73964385535E+03  0.83224060167E+03  0.35000000000E+03 0.  0.
       21    1    1    2  504  502  0.21189808814E+02 -0.23218805805E+02 -0.10567978995E+02  0.33163279703E+02  0.00000000000E+00 0. -1.
       21    1    1    2  505  501 -0.39506165673E+02 -0.47622323350E+02  0.40546818195E+03  0.41016224763E+03  0.00000000000E+00 0.  1.
<scales pt_clust_1="13000.00000" pt_clust_2="13000.00000" pt_clust_3="31.43439" pt_clust_4="69.54787"></scales>
<clustering>
<clus scale="   31.434">  1  5  2 -1</clus>
<clus scale="   69.548">  1  6  2 -1</clus>
<clus scale="  387.028">  1  3  2 -1</clus>
<clus scale="  387.028">  1  3  2 -1</clus>
</clustering>
</event>
<event>
 6   2  0.3464723E-02  0.3515141E+03  0.7816531E-02  0.1061995E+00
        2   -1    0    0  501    0  0.00000000000E+00  0.00000000000E+00  0.11840523882E+04  0.11840523882E+04  0.00000000000E+00 0. -1.
       21   -1    0    0  504  503  0.00000000000E+00  0.00000000000E+00 -0.69219585253E+03  0.69219585253E+03  0.00000000000E+00 0. -1.
  1000006    1    1    2  501    0  0.55929813310E+02  0.35683788514E+02  0.10393823789E+02  0.35638393391E+03  0.35000000000E+03 0.  0.
 -1000006    1    1    2    0  503 -0.24629283338E+02  0.16002427806E+02 -0.44445903330E+03  0.56648610890E+03  0.35000000000E+03 0.  0.
       21    1    1    2  504  502 -0.28795634213E+02 -0.18932215422E+02  0.86664078950E+01  0.35534827372E+02  0.00000000000E+00 0. -1.
        2    1    1    2  502    0 -0.25048957596E+01 -0.32754000898E+02  0.91725533724E+03  0.91784337050E+03  0.00000000000E+00 0. -1.
<scales pt_clust_1="13000.00000" pt_clust_2="13000.00000" pt_clust_3="36.19185" pt_clust_4="32.84964"></scales>
<clustering>
<clus scale="   32.850">  1  6  2 -1</clus>
<clus scale="   36.192">  1  5  2 -1</clus>
<clus scale="  351.514">  1  3  2 -1</clus>
<clus scale="  351.514">  2  3  1 -1</clus>
</clustering>
</event>
<event>
 5   1  0.3464723E-02  0.4869968E+03  0.7816531E-02  0.1017230E+00
       21   -1    0    0  501  502  0.00000000000E+00  0.00000000000E+00  0.35288445911E+03  0.35288445911E+03  0.00000000000E+00 0.  1.
       21   -1    0    0  504  503  0.00000000000E+00  0.00000000000E+00 -0.86758728844E+03  0.86758728844E+03  0.00000000000E+00 0. -1.
  1000006    1    1    2  501    0 -0.24642756812E+03  0.24903994985E+03 -0.92188696810E+02  0.50373226894E+03  0.35000000000E+03 0.  0.
 -1000006    1    1    2    0  503  0.25563081308E+03 -0.19994655024E+03 -0.25340298208E+03  0.54040614993E+03  0.35000000000E+03 0.  0.
       21    1    1    2  504  502 -0.92032449602E+01 -0.49093399608E+02 -0.16911115044E+03  0.17633332869E+03  0.00000000000E+00 0.  1.
<scales pt_clust_1="13000.00000" pt_clust_2="13000.00000" pt_clust_3="49.94859"></scales>
<clustering>
<clus scale="   49.949">  2  5  1 -1</clus>
<clus scale="  486.997">  1  3  2 -1</clus>
<clus scale="  486.997">  1  3  2 -1</clus>
</clustering>
</event>
<event>
 4   0  0.3464723E-02  0.5089597E+03  0.7816531E-02  0.1011466E+00
       21   -1    0    0  503  502  0.00000000000E+00  0.00000000000E+00  0.16398624276E+04  0.16398624276E+04  0.00000000000E+00 0.  1.
       21   -1    0    0  501  503  0.00000000000E+00  0.00000000000E+00 -0.19638842868E+03  0.19638842868E+03  0.00000000000E+00 0. -1.
  1000006    1    1    2  501    0  0.31534392330E+03  0.19260885328E+03  0.31562552969E+03  0.59888182083E+03  0.35000000000E+03 0.  0.
 -1000006    1    1    2    0  502 -0.31534392330E+03 -0.19260885328E+03  0.11278484692E+04  0.12373690354E+04  0.35000000000E+03 0.  0.
<scales pt_clust_1="13000.00000" pt_clust_2="13000.00000"></scales>
<clustering>
<clus scale="  508.960">  2  3  1 -1</clus>
<clus scale="  508.960">  1  3  2 -1</clus>
</clustering>
</event>
<event>
 5   1  0.3464723E-02  0.6517899E+03  0.7816531E-02  0.9803426E-01
       21   -1    0    0  503  502  0.00000000000E+00  0.00000000000E+00  0.38822157262E+03  0.38822157262E+03  0.00000000000E+00 0.  1.
       21   -1    0    0  504  503  0.00000000000E+00  0.00000000000E+00 -0.11510938817E+04  0.11510938817E+04  0.00000000000E+00 0.  1.
  1000006    1    1    2  501    0  0.38000961107E+03 -0.41087714954E+03 -0.36788339215E+03  0.75568877638E+03  0.35000000000E+03 0.  0.
 -1000006    1    1    2    0  502 -0.38529579405E+03  0.37897675649E+03 -0.36880887404E+03  0.74202170887E+03  0.35000000000E+03 0.  0.
       21    1    1    2  504  501  0.52861829775E+01  0.31900393048E+02 -0.26180042916E+02  0.41604969105E+02  0.00000000000E+00 0.  1.
<scales pt_clust_1="13000.00000" pt_clust_2="13000.00000" pt_clust_3="32.33541"></scales>
<clustering>
<clus scale="   32.335">  2  5  1 -1</clus>
<clus scale="  651.790">  1  4  2 -1</clus>
<clus scale="  651.790">  1  3  2 -1</clus>
</clustering>
</event>
<event>
 5   1  0.3464723E-02  0.4720982E+03  0.7816531E-02  0.1021330E+00
       21   -1    0    0  503  502  0.00000000000E+00  0.00000000000E+00  0.42063760199E+03  0.42063760199E+03  0.00000000000E+00 0. -1.
       21   -1    0    0  504  503  0.00000000000E+00  0.00000000000E+00 -0.75796196382E+03  0.75796196382E+03  0.00000000000E+00 0. -1.
  1000006    1    1    2  501    0 -0.21693393120E+03  0.22348395368E+03 -0.12579221266E+03  0.48510729620E+03  0.35000000000E+03 0.  0.
 -1000006    1    1    2    0  502  0.18450636303E+03 -0.26491271310E+03 -0.65677069895E+00  0.47615310028E+03  0.35000000000E+03 0.  0.
       21    1    1    2  504  501  0.32427568169E+02  0.41428759419E+02 -0.21087537846E+03  0.21733916933E+03  0.00000000000E+00 0. -1.
<scales pt_clust_1="13000.00000" pt_clust_2="13000.00000" pt_clust_3="52.61073"></scales>
<clustering>
<clus scale="   52.611">  2  5  1 -1</clus>
<clus scale="  472.098">  2  3  1 -1</clus>
<clus scale="  472.098">  1  3  2 -1</clus>
</clustering>
</event>
<event>
 5   1  0.3464723E-02  0.3918218E+03  0.7816531E-02  0.1046649E+00
       21   -1    0    0  501  502  0.00000000000E+00  0.00000000000E+00  0.27277446993E+03  0.27277446993E+03  0.00000000000E+00 0. -1.
       21   -1    0    0  502  503  0.00000000000E+00  0.00000000000E+00 -0.88916945176E+03  0.88916945176E+03  0.00000000000E+00 0. -1.
  1000006    1    1    2  501    0 -0.14938517491E+03 -0.18535396432E+03 -0.12906808364E+03  0.44252750512E+03  0.35000000000E+03 0.  0.
 -1000006    1    1    2    0  504  0.96220712278E+02  0.44939581369E+02 -0.26720093527E+03  0.45296173266E+03  0.35000000000E+03 0.  0.
       21    1    1    2  504  503  0.53164462628E+02  0.14041438295E+03 -0.22012596292E+03  0.26645468391E+03  0.00000000000E+00 0. -1.
<scales pt_clust_1="13000.00000" pt_clust_2="13000.00000" pt_clust_3="150.14213"></scales>
<clustering>
<clus scale="  150.142">  2  5  1 -1</clus>
<clus scale="  391.822">  2  4  1 -1</clus>
<clus scale="  391.822">  1  3  2 -1</clus>
</clustering>
</event>
<event>
 6   2  0.3464723E-02  0.4074931E+03  0.7816531E-02  0.1041216E+00
       21   -1    0    0  505  502  0.00000000000E+00  0.00000000000E+00  0.49061141750E+03  0.49061141750E+03  0.00000000000E+00 0. -1.
       21   -1    0    0  504  503  0.00000000000E+00  0.00000000000E+00 -0.45611383416E+03  0.45611383416E+03  0.00000000000E+00 0. -1.
  1000006    1    1    2  501    0 -0.18755316389E+03 -0.80801705459E+02  0.28092865498E+02  0.40619492117E+03  0.35000000000E+03 0.  0.
 -1000006    1    1    2    0  503  0.16235635839E+03  0.14238964004E+03 -0.18035806967E+02  0.41165481539E+03  0.35000000000E+03 0.  0.
       21    1    1    2  504  502  0.58609348064E+02 -0.34630036211E+02 -0.15962290814E+02  0.69922026691E+02  0.00000000000E+00 0. -1.
       21    1    1    2  505  501 -0.33412542569E+02 -0.26957898368E+02  0.40402815627E+02  0.58953488412E+02  0.00000000000E+00 0. -1.
<scales pt_clust_1="13000.00000" pt_clust_2="13000.00000" pt_clust_3="67.19965" pt_clust_4="42.93165"></scales>
<clustering>
<clus scale="   42.932">  1  6  2 -1</clus>
<clus scale="   67.200">  2  5  1 -1</clus>
<clus scale="  407.493">  1  3  2 -1</clus>
<clus scale="  407.493">  1  3  2 -1</clus>
</clustering>
</event>
<event>
 6   2  0.3464723E-02  0.4659564E+03  0.7816531E-02  0.1023068E+00
       21   -1    0    0  501  502  0.00000000000E+00  0.00000000000E+00  0.35502134651E+03  0.35502134651E+03  0.00000000000E+00 0. -1.
       21   -1    0    0  505  503  0.00000000000E+00  0.00000000000E+00 -0.22342405987E+04  0.22342405987E+04  0.00000000000E+00 0.  1.
  1000006    1    1    2  501    0  0.15855471906E+03  0.24926503167E+03  0.42164303329E+02  0.45994617449E+03  0.35000000000E+03 0.  0.
 -1000006    1    1    2    0  504 -0.17785053263E+03 -0.29206168802E+03 -0.48687777261E+03  0.69027589197E+03  0.35000000000E+03 0.  0.
       21    1    1    2  504  503  0.41882227755E+02  0.14194428122E+02 -0.24391148776E+03  0.24788791147E+03  0.00000000000E+00 0.  1.
       21    1    1    2  505  502 -0.22586414185E+02  0.28602228227E+02 -0.11905942951E+04  0.11911519673E+04  0.00000000000E+00 0. -1.
<scales pt_clust_1="13000.00000" pt_clust_2="13000.00000" pt_clust_3="42.12905" pt_clust_4="36.44494"></scales>
<clustering>
<clus scale="   36.445">  2  6  1 -1</clus>
<clus scale="   42.129">  2  5  1 -1</clus>
<clus scale="  465.956">  2  4  1 -1</clus>
<clus scale="  465.956">  1  3  2 -1</clus>
</clustering>
</event>
<event>
 5   1  0.3464723E-02  0.3569469E+03  0.7816531E-02  0.1059799E+00
       21   -1    0    0  501  502  0.00000000000E+00  0.00000000000E+00  0.96137615054E+02  0.96137615054E+02  0.00000000000E+00 0.  1.
       21   -1    0    0  504  503  0.00000000000E+00  0.00000000000E+00 -0.16939355702E+04  0.16939355702E+04  0.00000000000E+00 0.  1.
  1000006    1    1    2  501    0 -0.29748257478E+02  0.23433562684E+02 -0.64322005098E+03  0.73325720226E+03  0.35000000000E+03 0.  0.
 -1000006    1    1    2    0  503  0.84719090703E+01 -0.10625431688E+03 -0.81088820273E+03  0.88960745862E+03  0.35000000000E+03 0.  0.
       21    1    1    2  504  502  0.21276348408E+02  0.82820754199E+02 -0.14368970148E+03  0.16720852442E+03  0.00000000000E+00 0. -1.
<scales pt_clust_1="13000.00000" pt_clust_2="13000.00000" pt_clust_3="85.51000"></scales>
<clustering>
<clus scale="   85.510">  1  5  2 -1</clus>
<clus scale="  356.947">  2  4  1 -1</clus>
<clus scale="  356.947">  1  3  2 -1</clus>
</clustering>
</event>
<event>
 5   1  0.3464723E-02  0.4062043E+03  0.7816531E-02  0.1041652E+00
       21   -1    0    0  503  502  0.00000000000E+00  0.00000000000E+00  0.86318893097E+03  0.86318893097E+03  0.00000000000E+00 0.  1.
       21   -1    0    0  504  503  0.00000000000E+00  0.00000000000E+00 -0.35234602389E+03  0.35234602389E+03  0.00000000000E+00 0.  1.
  1000006    1    1    2  501    0 -0.19553642383E+03  0.46278051317E+02  0.23788298311E+03  0.46847034562E+03  0.35000000000E+03 0.  0.
 -1000006    1    1    2    0  502  0.19596026331E+03 -0.77609395974E+02  0.42635015573E+03  0.59050664555E+03  0.35000000000E+03 0.  0.
       21    1    1    2  504  501 -0.42383948079E+00  0.31331344657E+02 -0.15339023175E+03  0.15655796369E+03  0.00000000000E+00 0.  1.
<scales pt_clust_1="13000.00000" pt_clust_2="13000.00000" pt_clust_3="31.33421"></scales>
<clustering>
<clus scale="   31.334">  2  5  1 -1</clus>
<clus scale="  406.204">  2  3  1 -1</clus>
<clus scale="  406.204">  1  3  2 -1</clus>
</clustering>
</event>
<event>
 6   2  0.3464723E-02  0.6305869E+03  0.7816531E-02  0.9843904E-01
       21   -1    0    0  504  502  0.00000000000E+00  0.00000000000E+00  0.89950848592E+03  0.89950848592E+03  0.00000000000E+00 0.  1.
       21   -1    0    0  505  503  0.00000000000E+00  0.00000000000E+00 -0.11359953765E+04  0.11359953765E+04  0.00000000000E+00 0. -1.
  1000006    1    1    2  501    0 -0.40986675254E+03 -0.33358093966E+03  0.14479870371E+03  0.65017971572E+03  0.35000000000E+03 0.  0.
 -1000006    1    1    2    0  502  0.45204621480E+03  0.26524569960E+03  0.28776948311E+03  0.69282922635E+03  0.35000000000E+03 0.  0.
       21    1    1    2  504  503 -0.53345202224E+02 -0.40518595773E+02 -0.30906516765E+03  0.31624159286E+03  0.00000000000E+00 0. -1.
       21    1    1    2  505  501  0.11165739961E+02  0.10885383583E+03 -0.35998990979E+03  0.37625332753E+03  0.00000000000E+00 0. -1.
<scales pt_clust_1="13000.00000" pt_clust_2="13000.00000" pt_clust_3="66.98856" pt_clust_4="91.62012"></scales>
<clustering>
<clus scale="   66.989">  2  5  1 -1</clus>
<clus scale="   91.620">  2  6  1 -1</clus>
<clus scale="  630.587">  1  4  2 -1</clus>
<clus scale="  630.587">  1  3  2 -1</clus>
</clustering>
</event>
<event>
 4   0  0.3464723E-02  0.3995740E+03  0.7816531E-02  0.1043927E+00
       21   -1    0    0  503  502  0.00000000000E+00  0.00000000000E+00  0.30081335862E+03  0.30081335862E+03  0.00000000000E+00 0. -1.
       21   -1    0    0  501  503  0.00000000000E+00  0.00000000000E+00 -0.55905141620E+03  0.55905141620E+03  0.00000000000E+00 0. -1.
  1000006    1    1    2  501    0  0.14395194645E+03 -0.12820786454E+03 -0.22583734874E+03  0.45897922339E+03  0.35000000000E+03 0.  0.
 -1000006    1    1    2    0  502 -0.14395194645E+03  0.12820786454E+03 -0.32400708833E+02  0.40088555143E+03  0.35000000000E+03 0.  0.
<scales pt_clust_1="13000.00000" pt_clust_2="13000.00000"></scales>
<clustering>
<clus scale="  399.574">  2  3  1 -1</clus>
<clus scale="  399.574">  1  3  2 -1</clus>
</clustering>
</event>
<event>
 4   0  0.3464723E-02  0.3982547E+03  0.7816531E-02  0.1044386E+00
       21   -1    0    0  503  502  0.00000000000E+00  0.00000000000E+00  0.28115286079E+03  0.28115286079E+03  0.00000000000E+00 0.  1.
       21   -1    0    0  501  503  0.00000000000E+00  0.00000000000E+00 -0.62803326342E+03  0.62803326342E+03  0.00000000000E+00 0.  1.
  1000006    1    1    2  501    0  0.16272671162E+03  0.98116368208E+02 -0.31844838169E+03  0.50991781317E+03  0.35000000000E+03 0.  0.
 -1000006    1    1    2    0  502 -0.16272671162E+03 -0.98116368208E+02 -0.28432020940E+02  0.39926831104E+03  0.35000000000E+03 0.  0.
<scales pt_clust_1="13000.00000" pt_clust_2="13000.00000"></scales>
<clustering>
<clus scale="  398.255">  2  3  1 -1</clus>
<clus scale="  398.255">  1  3  2 -1</clus>
</clustering>
</event>
<event>
 4   0  0.3464723E-02  0.3949050E+03  0.7816531E-02  0.1045558E+00
       21   -1    0    0  501  502  0.00000000000E+00  0.00000000000E+00  0.81673094114E+03  0.81673094114E+03  0.00000000000E+00 0.  1.
       21   -1    0    0  502  503  0.00000000000E+00  0.00000000000E+00 -0.22070237164E+03  0.22070237164E+03  0.00000000000E+00 0.  1.
  1000006    1    1    2  501    0 -0.15791334147E+03  0.92267774845E+02  0.48848597933E+03  0.62814689181E+03  0.35000000000E+03 0.  0.
 -1000006    1    1    2    0  503  0.15791334147E+03 -0.92267774845E+02  0.10754259017E+03  0.40928642097E+03  0.35000000000E+03 0.  0.
<scales pt_clust_1="13000.00000" pt_clust_2="13000.00000"></scales>
<clustering>
<clus scale="  394.905">  1  3  2 -1</clus>
<clus scale="  394.905">  1  3  2 -1</clus>
</clustering>
</event>
<event>
 5   1  0.3464723E-02  0.3569430E+03  0.7816531E-02  0.1059801E+00
       21   -1    0    0  503  502  0.00000000000E+00  0.00000000000E+00  0.34395365495E+03  0.34395365495E+03  0.00000000000E+00 0. -1.
       21   -1    0    0  501  503  0.00000000000E+00  0.00000000000E+00 -0.56408825247E+03  0.56408825247E+03  0.00000000000E+00 0. -1.
  1000006    1    1    2  501    0  0.97106323315E+02 -0.60623841707E+01 -0.22697584900E+03  0.42835082183E+03  0.35000000000E+03 0.  0.
 -1000006    1    1    2    0  504 -0.32258666265E+02  0.11131227042E+02 -0.90036201169E+02  0.36300281443E+03  0.35000000000E+03 0.  0.
       21    1    1    2  504  502 -0.64847657049E+02 -0.50688428713E+01  0.96877452652E+02  0.11668827115E+03  0.00000000000E+00 0. -1.
<scales pt_clust_1="13000.00000" pt_clust_2="13000.00000" pt_clust_3="65.04546"></scales>
<clustering>
<clus scale="   65.045">  1  5  2 -1</clus>
<clus scale="  356.943">  2  3  1 -1</clus>
<clus scale="  356.943">  1  3  2 -1</clus>
</clustering>
</event>
<event>
 6   2  0.3464723E-02  0.3957387E+03  0.7816531E-02  0.1045265E+00
       21   -1    0    0  501  502  0.00000000000E+00  0.00000000000E+00  0.56281330642E+03  0.56281330642E+03  0.00000000000E+00 0. -1.
       21   -1    0    0  504  503  0.00000000000E+00  0.00000000000E+00 -0.59927671653E+03  0.59927671653E+03  0.00000000000E+00 0. -1.
  1000006    1    1    2  501    0 -0.61968711460E+02  0.18185134423E+03  0.27116408873E+03  0.48263857659E+03  0.35000000000E+03 0.  0.
 -1000006    1    1    2    0  503  0.65599390233E+02 -0.17092873898E+03 -0.39039931404E+03  0.55536612988E+03  0.35000000000E+03 0.  0.
       21    1    1    2  504  505  0.25324972417E+02 -0.20463909903E+02 -0.33452557173E+01  0.32730972675E+02  0.00000000000E+00 0. -1.
       21    1    1    2  505  502 -0.28955651190E+02  0.95413046594E+01  0.86117070907E+02  0.91354343805E+02  0.00000000000E+00 0. -1.
<scales pt_clust_1="13000.00000" pt_clust_2="13000.00000" pt_clust_3="31.67747" pt_clust_4="30.48715"></scales>
<clustering>
<clus scale="   30.487">  1  6  2 -1</clus>
<clus scale="   31.677">  1  5  2 -1</clus>
<clus scale="  395.739">  1  3  2 -1</clus>
<clus scale="  395.739">  1  3  2 -1</clus>
</clustering>
</event>
<event>
 5   1  0.3464723E-02  0.7602224E+03  0.7816531E-02  0.9619448E-01
       21   -1    0    0  501  503  0.00000000000E+00  0.00000000000E+00  0.84821781403E+03  0.84821781403E+03  0.00000000000E+00 0. -1.
        2   -1    0    0  503    0  0.00000000000E+00  0.00000000000E+00 -0.13033812157E+04  0.13033812157E+04  0.00000000000E+00 0.  1.
  1000006    1    1    2  501    0 -0.66339240189E+03 -0.62540636750E+02  0.24914978031E+03  0.79282811703E+03  0.35000000000E+03 0.  0.
 -1000006    1    1    2    0  502  0.67851673148E+03  0.13345062651E+03 -0.13726471226E+03  0.78710585428E+03  0.35000000000E+03 0.  0.
        2    1    1    2  502    0 -0.15124329595E+02 -0.70909989759E+02 -0.56704846970E+03  0.57166505838E+03  0.00000000000E+00 0.  1.
<scales pt_clust_1="13000.00000" pt_clust_2="13000.00000" pt_clust_3="72.50498"></scales>
<clustering>
<clus scale="   72.505">  2  5  1 -1</clus>
<clus scale="  760.222">  1  3  2 -1</clus>
<clus scale="  760.222">  1  3  2 -1</clus>
</clustering>
</event>
<event>
 4   0  0.3464723E-02  0.4218699E+03  0.7816531E-02  0.1036459E+00
       21   -1    0    0  501  502  0.00000000000E+00  0.00000000000E+00  0.83243242772E+02  0.83243242772E+02  0.00000000000E+00 0. -1.
       21   -1    0    0  502  503  0.00000000000E+00  0.00000000000E+00 -0.21406200124E+04  0.21406200124E+04  0.00000000000E+00 0. -1.
  1000006    1    1    2  501    0 -0.22380391798E+03 -0.73389465783E+02 -0.98980122346E+03  0.10759557005E+04  0.35000000000E+03 0.  0.
 -1000006    1    1    2    0  503  0.22380391798E+03  0.73389465783E+02 -0.10675755462E+04  0.11479075547E+04  0.35000000000E+03 0.  0.
<scales pt_clust_1="13000.00000" pt_clust_2="13000.00000"></scales>
<clustering>
<clus scale="  421.870">  1  3  2 -1</clus>
<clus scale="  421.870">  1  3  2 -1</clus>
</clustering>
</event>
<event>
 6   2  0.3464723E-02  0.4004994E+03  0.7816531E-02  0.1043607E+00
       21   -1    0    0  503  502  0.00000000000E+00  0.00000000000E+00  0.69435340212E+03  0.69435340212E+03  0.00000000000E+00 0. -1.
       21   -1    0    0  504  503  0.00000000000E+00  0.00000000000E+00 -0.55693698601E+03  0.55693698601E+03  0.00000000000E+00 0. -1.
  1000006    1    1    2  501    0  0.64146417640E+02  0.22147363959E+03 -0.17253687583E+03  0.45324861770E+03  0.35000000000E+03 0.  0.
 -1000006    1    1    2    0  505 -0.88326336339E+02 -0.13987309287E+03 -0.13577607428E+01  0.38712771447E+03  0.35000000000E+03 0.  0.
       21    1    1    2  504  501  0.24570510993E+02 -0.49138277920E+02 -0.33652345274E+02  0.64426397617E+02  0.00000000000E+00 0.  1.
       21    1    1    2  505  502 -0.39059229397E+00 -0.32462268800E+02  0.34496339795E+03  0.34648765834E+03  0.00000000000E+00 0. -1.
<scales pt_clust_1="13000.00000" pt_clust_2="13000.00000" pt_clust_3="56.21648" pt_clust_4="32.46462"></scales>
<clustering>
<clus scale="   32.465">  1  6  2 -1</clus>
<clus scale="   56.216">  2  5  1 -1</clus>
<clus scale="  400.499">  2  3  1 -1</clus>
<clus scale="  400.499">  1  3  2 -1</clus>
</clustering>
</event>
<event>
 4   0  0.3464723E-02  0.3779274E+03  0.7816531E-02  0.1051702E+00
       21   -1    0    0  501  502  0.00000000000E+00  0.00000000000E+00  0.87021191684E+03  0.87021191684E+03  0.00000000000E+00 0. -1.
       21   -1    0    0  502  503  0.00000000000E+00  0.00000000000E+00 -0.16421831533E+03  0.16421831533E+03  0.00000000000E+00 0. -1.
  1000006    1    1    2  501    0 -0.12868343611E+03 -0.61397992408E+02  0.36489260389E+03  0.52533394386E+03  0.35000000000E+03 0.  0.
 -1000006    1    1    2    0  503  0.12868343611E+03  0.61397992408E+02  0.34110099762E+03  0.50909628832E+03  0.35000000000E+03 0.  0.
<scales pt_clust_1="13000.00000" pt_clust_2="13000.00000"></scales>
<clustering>
<clus scale="  377.927">  1  3  2 -1</clus>
<clus scale="  377.927">  1  3  2 -1</clus>
</clustering>
</event>
<event>
 5   1  0.3464723E-02  0.4577209E+03  0.7816531E-02  0.1025444E+00
       21   -1    0    0  504  502  0.00000000000E+00  0.00000000000E+00  0.19814032308E+04  0.19814032308E+04  0.00000000000E+00 0.  1.
       21   -1    0    0  501  503  0.00000000000E+00  0.00000000000E+00 -0.13555008358E+03  0.13555008358E+03  0.00000000000E+00 0. -1.
  1000006    1    1    2  501    0 -0.31063323697E+03 -0.28524937596E+02  0.60129775504E+03  0.76247338982E+03  0.35000000000E+03 0.  0.
 -1000006    1    1    2    0  502  0.25581589704E+03  0.98769199592E+02  0.10627829640E+04  0.11520437303E+04  0.35000000000E+03 0.  0.
       21    1    1    2  504  503  0.54817339928E+02 -0.70244261996E+02  0.18177242816E+03  0.20243619424E+03  0.00000000000E+00 0. -1.
<scales pt_clust_1="13000.00000" pt_clust_2="13000.00000" pt_clust_3="89.10217"></scales>
<clustering>
<clus scale="   89.102">  1  5  2 -1</clus>
<clus scale="  457.721">  1  4  2 -1</clus>
<clus scale="  457.721">  1  3  2 -1</clus>
</clustering>
</event>
<event>
 5   1  0.3464723E-02  0.3666915E+03  0.7816531E-02  0.1055965E+00
       21   -1    0    0  501  502  0.00000000000E+00  0.00000000000E+00  0.52203224001E+03  0.52203224001E+03  0.00000000000E+00 0.  1.
       21   -1    0    0  504  503  0.00000000000E+00  0.00000000000E+00 -0.63566508328E+03  0.63566508328E+03  0.00000000000E+00 0.  1.
  1000006    1    1    2  501    0  0.80986165212E+02 -0.30583200546E+02  0.23543749052E+03  0.43060991983E+03  0.35000000000E+03 0.  0.
 -1000006    1    1    2    0  503 -0.11605763812E+03  0.11794919229E+03 -0.23143215648E+02  0.38783630021E+03  0.35000000000E+03 0.  0.
       21    1    1    2  504  502  0.35071472907E+02 -0.87365991744E+02 -0.32592711813E+03  0.33925110325E+03  0.00000000000E+00 0.  1.
<scales pt_clust_1="13000.00000" pt_clust_2="13000.00000" pt_clust_3="94.14258"></scales>
<clustering>
<clus scale="   94.143">  2  5  1 -1</clus>
<clus scale="  366.692">  2  4  1 -1</clus>
<clus scale="  366.692">  1  3  2 -1</clus>
</clustering>
</event>
<event>
 5   1  0.3464723E-02  0.3725076E+03  0.7816531E-02  0.1053738E+00
       21   -1    0    0  503  502  0.00000000000E+00  0.00000000000E+00  0.10380933178E+04  0.10380933178E+04  0.00000000000E+00 0.  1.
       21   -1    0    0  501  503  0.00000000000E+00  0.00000000000E+00 -0.15575139728E+03  0.15575139728E+03  0.00000000000E+00 0.  1.
  1000006    1    1    2  501    0  0.14953356312E+03 -0.35615247775E+02  0.37676182066E+03  0.53672916996E+03  0.35000000000E+03 0.  0.
 -1000006    1    1    2    0  504 -0.97587627811E+02  0.14577522803E+02  0.44187297970E+03  0.57226530514E+03  0.35000000000E+03 0.  0.
       21    1    1    2  504  502 -0.51945935312E+02  0.21037724971E+02  0.63707120156E+02  0.84850239987E+02  0.00000000000E+00 0.  1.
<scales pt_clust_1="13000.00000" pt_clust_2="13000.00000" pt_clust_3="56.04432"></scales>
<clustering>
<clus scale="   56.044">  1  5  2 -1</clus>
<clus scale="  372.508">  2  3  1 -1</clus>
<clus scale="  372.508">  1  3  2 -1</clus>
</clustering>
</event>
<event>
 5   1  0.3464723E-02  0.3699535E+03  0.7816531E-02  0.1054711E+00
       21   -1    0    0  504  502  0.00000000000E+00  0.00000000000E+00  0.14195520725E+04  0.14195520725E+04  0.00000000000E+00 0. -1.
       21   -1    0    0  501  503  0.00000000000E+00  0.00000000000E+00 -0.14693000227E+03  0.14693000227E+03  0.00000000000E+00 0. -1.
  1000006    1    1    2  501    0  0.15258614520E+03 -0.25661784802E+02  0.48132042045E+03  0.61490682713E+03  0.35000000000E+03 0.  0.
 -1000006    1    1    2    0  502 -0.71293144130E+02 -0.10682200466E+03  0.54447684189E+03  0.65988535704E+03  0.35000000000E+03 0.  0.
       21    1    1    2  504  503 -0.81293001074E+02  0.13248378946E+03  0.24682480794E+03  0.29168989065E+03  0.00000000000E+00 0. -1.
<scales pt_clust_1="13000.00000" pt_clust_2="13000.00000" pt_clust_3="155.43650"></scales>
<clustering>
<clus scale="  155.437">  1  5  2 -1</clus>
<clus scale="  369.954">  2  3  1 -1</clus>
<clus scale="  369.954">  1  3  2 -1</clus>
</clustering>
</event>
<event>
 6   2  0.3464723E-02  0.5376544E+03  0.7816531E-02  0.1004393E+00
       21   -1    0    0  504  502  0.00000000000E+00  0.00000000000E+00  0.49172206370E+03  0.49172206370E+03  0.00000000000E+00 0.  1.
       21   -1    0    0  505  503  0.00000000000E+00  0.00000000000E+00 -0.22472226197E+04  0.22472226197E+04  0.00000000000E+00 0.  1.
  1000006    1    1    2  501    0  0.42455553095E+03 -0.74532218695E+02 -0.12910763763E+03  0.57006248130E+03  0.35000000000E+03 0.  0.
 -1000006    1    1    2    0  502 -0.35474491475E+03  0.18053195348E+03 -0.24420893263E+02  0.53059600526E+03  0.35000000000E+03 0.  0.
       21    1    1    2  504  503  0.14906583808E+02 -0.20354431345E+03 -0.11600353179E+04  0.11778516174E+04  0.00000000000E+00 0.  1.
       21    1    1    2  505  501 -0.84717200014E+02  0.97544578658E+02 -0.44193670722E+03  0.46043457950E+03  0.00000000000E+00 0.  1.
<scales pt_clust_1="13000.00000" pt_clust_2="13000.00000" pt_clust_3="145.72147" pt_clust_4="129.19733"></scales>
<clustering>
<clus scale="  129.197">  2  6  1 -1</clus>
<clus scale="  145.721">  2  5  1 -1</clus>
<clus scale="  537.654">  1  4  2 -1</clus>
<clus scale="  537.654">  1  3  2 -1</clus>
</clustering>
</event>
<event>
 5   1  0.3464723E-02  0.3815489E+03  0.7816531E-02  0.1050363E+00
       21   -1    0    0  502  503  0.00000000000E+00  0.00000000000E+00  0.25921883458E+03  0.25921883458E+03  0.00000000000E+00 0. -1.
        1   -1    0    0  501    0  0.00000000000E+00  0.00000000000E+00 -0.72492400111E+03  0.72492400111E+03  0.00000000000E+00 0. -1.
  1000006    1    1    2  501    0 -0.12665043989E+03  0.13461183599E+02 -0.31145249866E+03  0.48551436262E+03  0.35000000000E+03 0.  0.
 -1000006    1    1    2    0  503  0.16235738940E+03 -0.34264663573E+02 -0.55142169301E+02  0.39124755322E+03  0.35000000000E+03 0.  0.
        1    1    1    2  502    0 -0.35706949514E+02  0.20803479975E+02 -0.99110498573E+02  0.10738091986E+03  0.00000000000E+00 0. -1.
<scales pt_clust_1="13000.00000" pt_clust_2="13000.00000" pt_clust_3="41.32519"></scales>
<clustering>
<clus scale="   41.325">  2  5  1 -1</clus>
<clus scale="  381.549">  2  3  1 -1</clus>
<clus scale="  381.549">  1  3  2 -1</clus>
</clustering>
</event>
<event>
 5   1  0.3464723E-02  0.3886454E+03  0.7816531E-02  0.1047784E+00
       21   -1    0    0  501  502  0.00000000000E+00  0.00000000000E+00  0.35233045284E+03  0.35233045284E+03  0.00000000000E+00 0. -1.
       21   -1    0    0  504  503  0.00000000000E+00  0.00000000000E+00 -0.64061537356E+03  0.64061537356E+03  0.00000000000E+00 0. -1.
  1000006    1    1    2  501    0 -0.58331633441E+02 -0.13752867071E+03 -0.58990004617E+02  0.38509289187E+03  0.35000000000E+03 0.  0.
 -1000006    1    1    2    0  503  0.19846959538E+02  0.18181954464E+03 -0.31419583445E+03  0.50464965174E+03  0.35000000000E+03 0.  0.
       21    1    1    2  504  502  0.38484673903E+02 -0.44290873934E+02  0.84900918357E+02  0.10320328278E+03  0.00000000000E+00 0.  1.
<scales pt_clust_1="13000.00000" pt_clust_2="13000.00000" pt_clust_3="58.67497"></scales>
<clustering>
<clus scale="   58.675">  1  5  2 -1</clus>
<clus scale="  388.645">  1  3  2 -1</clus>
<clus scale="  388.645">  1  3  2 -1</clus>
</clustering>
</event>
<event>
 6   2  0.3464723E-02  0.3682050E+03  0.7816531E-02  0.1055381E+00
       21   -1    0    0  504  502  0.00000000000E+00  0.00000000000E+00  0.13839243805E+04  0.13839243805E+04  0.00000000000E+00 0.  1.
       21   -1    0    0  505  503  0.00000000000E+00  0.00000000000E+00 -0.27240213401E+03  0.27240213401E+03  0.00000000000E+00 0. -1.
  1000006    1    1    2  501    0 -0.13732738083E+02  0.25285053625E+03  0.54594673940E+03  0.69618950297E+03  0.35000000000E+03 0.  0.
 -1000006    1    1    2    0  502 -0.63251303392E+02 -0.12060421035E+02  0.56584079776E+03  0.66844744711E+03  0.35000000000E+03 0.  0.
       21    1    1    2  504  503  0.10665686496E+03 -0.13398413605E+03 -0.36437134632E+02  0.17508597984E+03  0.00000000000E+00 0. -1.
       21    1    1    2  505  501 -0.29672823488E+02 -0.10680597917E+03  0.36171843936E+02  0.11660358456E+03  0.00000000000E+00 0. -1.
<scales pt_clust_1="13000.00000" pt_clust_2="13000.00000" pt_clust_3="205.01366" pt_clust_4="110.85122"></scales>
<clustering>
<clus scale="  110.851">  2  6  1 -1</clus>
<clus scale="  205.014">  2  5  1 -1</clus>
<clus scale="  368.205">  2  3  1 -1</clus>
<clus scale="  368.205">  1  3  2 -1</clus>
</clustering>
</event>
<event>
 5   1  0.3464723E-02  0.3539463E+03  0.7816531E-02  0.1061007E+00
       21   -1    0    0  504  502  0.00000000000E+00  0.00000000000E+00  0.31387228787E+03  0.31387228787E+03  0.00000000000E+00 0.  1.
       21   -1    0    0  501  503  0.00000000000E+00  0.00000000000E+00 -0.10577519193E+04  0.10577519193E+04  0.00000000000E+00 0.  1.
  1000006    1    1    2  501    0  0.59896291122E+02  0.45670818047E+01 -0.19023175946E+03  0.40286045504E+03  0.35000000000E+03 0.  0.
 -1000006    1    1    2    0  502 -0.42399101443E+02  0.34153284704E+02  0.55156997020E+02  0.35847792816E+03  0.35000000000E+03 0.  0.
       21    1    1    2  504  503 -0.17497189679E+02 -0.38720366509E+02 -0.60880486902E+03  0.61028582400E+03  0.00000000000E+00 0.  1.
<scales pt_clust_1="13000.00000" pt_clust_2="13000.00000" pt_clust_3="42.49022"></scales>
<clustering>
<clus scale="   42.490">  2  5  1 -1</clus>
<clus scale="  353.946">  1  4  2 -1</clus>
<clus scale="  353.946">  1  3  2 -1</clus>
</clustering>
</event>
<event>
 5   1  0.3464723E-02  0.4356945E+03  0.7816531E-02  0.1032076E+00
       21   -1    0    0  504  502  0.00000000000E+00  0.00000000000E+00  0.24055369119E+04  0.24055369119E+04  0.00000000000E+00 0.  1.
       21   -1    0    0  502  503  0.00000000000E+00  0.00000000000E+00 -0.99758844031E+02  0.99758844031E+02  0.00000000000E+00 0.  1.
  1000006    1    1    2  501    0 -0.27775912212E+03  0.12694717237E+02  0.96315148581E+03  0.10618248775E+04  0.35000000000E+03 0.  0.
 -1000006    1    1    2    0  503  0.24160645475E+03  0.39693049601E+02  0.89914898738E+03  0.99544870218E+03  0.35000000000E+03 0.  0.
       21    1    1    2  504  501  0.36152667372E+02 -0.52387766838E+02  0.44347759469E+03  0.44802217630E+03  0.00000000000E+00 0.  1.
<scales pt_clust_1="13000.00000" pt_clust_2="13000.00000" pt_clust_3="63.65134"></scales>
<clustering>
<clus scale="   63.651">  1  5  2 -1</clus>
<clus scale="  435.695">  1  3  2 -1</clus>
<clus scale="  435.695">  1  3  2 -1</clus>
</clustering>
</event>
<event>
 5   1  0.3464723E-02  0.8695274E+03  0.7816531E-02  0.9464496E-01
        2   -1    0    0  503    0  0.00000000000E+00  0.00000000000E+00  0.16629894057E+04  0.16629894057E+04  0.00000000000E+00 0.  1.
       21   -1    0    0  501  503  0.00000000000E+00  0.00000000000E+00 -0.58068503094E+03  0.58068503094E+03  0.00000000000E+00 0. -1.
  1000006    1    1    2  501    0  0.16277282304E+03 -0.86233644049E+02 -0.79198155056E+02  0.40336531959E+03  0.35000000000E+03 0.  0.
 -1000006    1    1    2    0  502  0.28991919560E+03 -0.13465511078E+03 -0.97808649750E+02  0.48399552767E+03  0.35000000000E+03 0.  0.
        2    1    1    2  502    0 -0.45269201864E+03  0.22088875483E+03  0.12593111796E+04  0.13563135894E+04  0.00000000000E+00 0.  1.
<scales pt_clust_1="13000.00000" pt_clust_2="13000.00000" pt_clust_3="503.70816"></scales>
<clustering>
<clus scale="  354.328">  3  4 -1 -1</clus>
<clus scale="  503.708">  1  5  2 -1</clus>
<clus scale="  869.527">  2  3  1 -1</clus>
</clustering>
</event>
<event>
 6   2  0.3464723E-02  0.4010861E+03  0.7816531E-02  0.1043404E+00
        2   -1    0    0  501    0  0.00000000000E+00  0.00000000000E+00  0.76255255102E+03  0.76255255102E+03  0.00000000000E+00 0.  1.
       21   -1    0    0  504  503  0.00000000000E+00  0.00000000000E+00 -0.14182605014E+04  0.14182605014E+04  0.00000000000E+00 0.  1.
  1000006    1    1    2  501    0 -0.11016396719E+03 -0.14381447725E+03 -0.83290434570E+01  0.39419294324E+03  0.35000000000E+03 0.  0.
 -1000006    1    1    2    0  503 -0.82603732928E+01  0.16291128822E+03 -0.11133132548E+04  0.11783780060E+04  0.35000000000E+03 0.  0.
       21    1    1    2  504  502  0.21485987769E+02  0.53269082607E+02 -0.51322729134E+02  0.77027692150E+02  0.00000000000E+00 0. -1.
        2    1    1    2  502    0  0.96938352712E+02 -0.72365893579E+02  0.51725707704E+03  0.53121441107E+03  0.00000000000E+00 0.  1.
<scales pt_clust_1="13000.00000" pt_clust_2="13000.00000" pt_clust_3="57.43904" pt_clust_4="120.89536"></scales>
<clustering>
<clus scale="   57.439">  2  5  1 -1</clus>
<clus scale="  120.895">  1  6  2 -1</clus>
<clus scale="  401.086">  2  4  1 -1</clus>
<clus scale="  401.086">  2  3  1 -1</clus>
</clustering>
</event>
<event>
 5   1  0.3464723E-02  0.4281762E+03  0.7816531E-02  0.1034438E+00
        3   -1    0    0  503    0  0.00000000000E+00  0.00000000000E+00  0.47551484052E+03  0.47551484052E+03  0.00000000000E+00 0. -1.
       -3   -1    0    0    0  501  0.00000000000E+00  0.00000000000E+00 -0.77566725387E+03  0.77566725387E+03  0.00000000000E+00 0.  1.
  1000006    1    1    2  502    0 -0.14810296706E+03  0.16413595174E+03  0.20625598089E+03  0.46251122058E+03  0.35000000000E+03 0.  0.
 -1000006    1    1    2    0  501  0.13355020715E+03 -0.21473831811E+03 -0.56421201094E+03  0.71048110206E+03  0.35000000000E+03 0.  0.
       21    1    1    2  503  502  0.14552759919E+02  0.50602366372E+02  0.57803616694E+02  0.78189771752E+02  0.00000000000E+00 0. -1.
<scales pt_clust_1="13000.00000" pt_clust_2="13000.00000" pt_clust_3="52.65342"></scales>
<clustering>
<clus scale="   52.653">  1  5  2 -1</clus>
<clus scale="  936.753">  3  4 -1 -1</clus>
<clus scale="  428.176">  1  3  2 -1</clus>
</clustering>
</event>
<event>
 5   1  0.3464723E-02  0.3778719E+03  0.7816531E-02  0.1051723E+00
       21   -1    0    0  503  502  0.00000000000E+00  0.00000000000E+00  0.73484104761E+02  0.73484104761E+02  0.00000000000E+00 0.  1.
       21   -1    0    0  504  503  0.00000000000E+00  0.00000000000E+00 -0.26302918291E+04  0.26302918291E+04  0.00000000000E+00 0.  1.
  1000006    1    1    2  501    0 -0.65352263835E+02 -0.13131776878E+03 -0.11148045016E+04  0.11776265756E+04  0.35000000000E+03 0.  0.
 -1000006    1    1    2    0  502  0.24905414513E+01  0.14540042429E+03 -0.85023491378E+03  0.93088500621E+03  0.35000000000E+03 0.  0.
       21    1    1    2  504  501  0.62861722383E+02 -0.14082655509E+02 -0.59176830888E+03  0.59526435197E+03  0.00000000000E+00 0.  1.
<scales pt_clust_1="13000.00000" pt_clust_2="13000.00000" pt_clust_3="64.41985"></scales>
<clustering>
<clus scale="   64.420">  2  5  1 -1</clus>
<clus scale="  377.872">  2  3  1 -1</clus>
<clus scale="  377.872">  1  3  2 -1</clus>
</clustering>
</event>
<event>
 5   1  0.3464723E-02  0.5487904E+03  0.7816531E-02  0.1009358E+00
       21   -1    0    0  504  502  0.00000000000E+00  0.00000000000E+00  0.16052546298E+04  0.16052546298E+04  0.00000000000E+00 0.  1.
       21   -1    0    0  501  503  0.00000000000E+00  0.00000000000E+00 -0.41493288099E+03  0.41493288099E+03  0.00000000000E+00 0. -1.
  1000006    1    1    2  501    0  0.56067756698E+02  0.24917723799E+03  0.29020805265E+03  0.52149170951E+03  0.35000000000E+03 0.  0.
 -1000006    1    1    2    0  502 -0.33642796741E+03  0.10236023412E+03  0.40718072288E+01  0.49616325378E+03  0.35000000000E+03 0.  0.
       21    1    1    2  504  503  0.28036021071E+03 -0.35153747211E+03  0.89604188895E+03  0.10025325475E+04  0.00000000000E+00 0.  1.
<scales pt_clust_1="13000.00000" pt_clust_2="13000.00000" pt_clust_3="422.69481"></scales>
<clustering>
<clus scale="  433.282">  2  3  1 -1</clus>
<clus scale="  422.695">  1  5  2 -1</clus>
<clus scale="  548.790">  1  3  2 -1</clus>
</clustering>
</event>
<event>
 5   1  0.3464723E-02  0.6825747E+03  0.7816531E-02  0.9747505E-01
        1   -1    0    0  503    0  0.00000000000E+00  0.00000000000E+00  0.20855525606E+04  0.20855525606E+04  0.00000000000E+00 0.  1.
       -1   -1    0    0    0  501  0.00000000000E+00  0.00000000000E+00 -0.26763352712E+03  0.26763352712E+03  0.00000000000E+00 0. -1.
  1000006    1    1    2  502    0 -0.13132663949E+03  0.56285099285E+03  0.49882634751E+03  0.83986644853E+03  0.35000000000E+03 0.  0.
 -1000006    1    1    2    0  501  0.17348083521E+03 -0.57733134347E+03  0.12445043591E+04  0.14264284700E+04  0.35000000000E+03 0.  0.
       21    1    1    2  503  502 -0.42154195713E+02  0.14480350627E+02  0.74588326919E+02  0.86891169189E+02  0.00000000000E+00 0. -1.
<scales pt_clust_1="13000.00000" pt_clust_2="13000.00000" pt_clust_3="44.57193"></scales>
<clustering>
<clus scale="   44.572">  1  5  2 -1</clus>
<clus scale=" 1314.307">  3  4 -1 -1</clus>
<clus scale="  682.575">  1  3  2 -1</clus>
</clustering>
</event>
<event>
 6   2  0.3464723E-02  0.9192583E+03  0.7816531E-02  0.9401823E-01
       21   -1    0    0  504  502  0.00000000000E+00  0.00000000000E+00  0.15165001027E+04  0.15165001027E+04  0.00000000000E+00 0.  1.
       21   -1    0    0  505  503  0.00000000000E+00  0.00000000000E+00 -0.11982969314E+04  0.11982969314E+04  0.00000000000E+00 0. -1.
  1000006    1    1    2  501    0 -0.53931079774E+02 -0.87561498120E+03  0.14514760980E+03  0.95560346656E+03  0.35000000000E+03 0.  0.
 -1000006    1    1    2    0  503  0.67226599247E+02  0.83446633893E+03 -0.52956344809E+03  0.10506145497E+04  0.35000000000E+03 0.  0.
       21    1    1    2  504  501  0.32871757476E+02  0.25666590418E+02  0.26540619955E+03  0.26866294323E+03  0.00000000000E+00 0.  1.
       21    1    1    2  505  502 -0.46167276949E+02  0.15482051858E+02  0.43721281003E+03  0.43991607455E+03  0.00000000000E+00 0.  1.
<scales pt_clust_1="13000.00000" pt_clust_2="13000.00000" pt_clust_3="41.70523" pt_clust_4="42.41458"></scales>
<clustering>
<clus scale="   41.705">  1  5  2 -1</clus>
<clus scale="   42.415">  1  6  2 -1</clus>
<clus scale="  919.258">  2  4  1 -1</clus>
<clus scale="  919.258">  1  3  2 -1</clus>
</clustering>
</event>
<event>
 5   1  0.3464723E-02  0.3774774E+03  0.7816531E-02  0.1051870E+00
       21   -1    0    0  502  503  0.00000000000E+00  0.00000000000E+00  0.21138932498E+04  0.21138932498E+04  0.00000000000E+00 0.  1.
        1   -1    0    0  501    0  0.00000000000E+00  0.00000000000E+00 -0.12224909843E+03  0.12224909843E+03  0.00000000000E+00 0.  1.
  1000006    1    1    2  501    0  0.50025747945E+02  0.87699563082E+02  0.50392467565E+03  0.62179889639E+03  0.35000000000E+03 0.  0.
 -1000006    1    1    2    0  503 -0.17135896713E+03 -0.27995311623E+02  0.13991900403E+04  0.14527148385E+04  0.35000000000E+03 0.  0.
        1    1    1    2  502    0  0.12133321919E+03 -0.59704251459E+02  0.88529435427E+02  0.16162861336E+03  0.00000000000E+00 0.  1.
<scales pt_clust_1="13000.00000" pt_clust_2="13000.00000" pt_clust_3="135.22702"></scales>
<clustering>
<clus scale="  135.227">  2  5  1 -1</clus>
<clus scale="  377.477">  2  3  1 -1</clus>
<clus scale="  377.477">  1  3  2 -1</clus>
</clustering>
</event>
<event>
 6   2  0.3464723E-02  0.4273528E+03  0.7816531E-02  0.1034699E+00
       21   -1    0    0  501  502  0.00000000000E+00  0.00000000000E+00  0.91724994108E+03  0.91724994108E+03  0.00000000000E+00 0.  1.
       21   -1    0    0  505  503  0.00000000000E+00  0.00000000000E+00 -0.75909900782E+03  0.75909900782E+03  0.00000000000E+00 0.  1.
  1000006    1    1    2  501    0 -0.22210401273E+03  0.18456051582E+03 -0.30481203187E+01  0.45376433036E+03  0.35000000000E+03 0.  0.
 -1000006    1    1    2    0  503  0.19605466414E+03 -0.74177438324E+02 -0.85872928123E+02  0.41690992249E+03  0.35000000000E+03 0.  0.
       21    1    1    2  504  502 -0.10500965130E+02 -0.85590546973E+02  0.52106131868E+03  0.52814856794E+03  0.00000000000E+00 0.  1.
       21    1    1    2  505  504  0.36550313728E+02 -0.24792530523E+02 -0.27398933697E+03  0.27752612810E+03  0.00000000000E+00 0.  1.
<scales pt_clust_1="13000.00000" pt_clust_2="13000.00000" pt_clust_3="86.38058" pt_clust_4="44.16554"></scales>
<clustering>
<clus scale="   44.166">  2  6  1 -1</clus>
<clus scale="   86.381">  1  5  2 -1</clus>
<clus scale="  427.353">  1  3  2 -1</clus>
<clus scale="  427.353">  1  3  2 -1</clus>
</clustering>
</event>
<event>
 5   1  0.3464723E-02  0.3527129E+03  0.7816531E-02  0.1061507E+00
       21   -1    0    0  504  502  0.00000000000E+00  0.00000000000E+00  0.44978081682E+03  0.44978081682E+03  0.00000000000E+00 0. -1.
       21   -1    0    0  501  503  0.00000000000E+00  0.00000000000E+00 -0.26848977759E+04  0.26848977759E+04  0.00000000000E+00 0. -1.
  1000006    1    1    2  501    0  0.12530992184E+02  0.16686753562E+03 -0.12220900948E+04  0.12821879738E+04  0.35000000000E+03 0.  0.
 -1000006    1    1    2    0  502  0.30714517529E+02  0.45512114003E+02  0.33474053080E+03  0.48740738307E+03  0.35000000000E+03 0.  0.
       21    1    1    2  504  503 -0.43245509713E+02 -0.21237964962E+03 -0.13477673950E+04  0.13650832359E+04  0.00000000000E+00 0. -1.
<scales pt_clust_1="13000.00000" pt_clust_2="13000.00000" pt_clust_3="216.73784"></scales>
<clustering>
<clus scale="  216.738">  2  5  1 -1</clus>
<clus scale="  352.713">  1  4  2 -1</clus>
<clus scale="  352.713">  1  3  2 -1</clus>
</clustering>
</event>
<event>
 5   1  0.3464723E-02  0.3604549E+03  0.7816531E-02  0.1058404E+00
       21   -1    0    0  504  502  0.00000000000E+00  0.00000000000E+00  0.57388445983E+03  0.57388445983E+03  0.00000000000E+00 0. -1.
       21   -1    0    0  502  503  0.00000000000E+00  0.00000000000E+00 -0.80073130690E+03  0.80073130690E+03  0.00000000000E+00 0. -1.
  1000006    1    1    2  501    0  0.17987270086E+02 -0.42140442747E+02  0.21459192448E+03  0.41309690492E+03  0.35000000000E+03 0.  0.
 -1000006    1    1    2    0  503 -0.87284552874E+02 -0.48664615046E+02 -0.63779810421E+03  0.73435227218E+03  0.35000000000E+03 0.  0.
       21    1    1    2  504  501  0.69297282788E+02  0.90805057793E+02  0.19635933265E+03  0.22716658963E+03  0.00000000000E+00 0. -1.
<scales pt_clust_1="13000.00000" pt_clust_2="13000.00000" pt_clust_3="114.22641"></scales>
<clustering>
<clus scale="  114.226">  1  5  2 -1</clus>
<clus scale="  360.455">  1  3  2 -1</clus>
<clus scale="  360.455">  1  3  2 -1</clus>
</clustering>
</event>
<event>
 4   0  0.3464723E-02  0.3596737E+03  0.7816531E-02  0.1058713E+00
       21   -1    0    0  501  502  0.00000000000E+00  0.00000000000E+00  0.55153446823E+03  0.55153446823E+03  0.00000000000E+00 0.  1.
       21   -1    0    0  502  503  0.00000000000E+00  0.00000000000E+00 -0.33305409003E+03  0.33305409003E+03  0.00000000000E+00 0.  1.
  1000006    1    1    2  501    0  0.27579691297E+02 -0.78131455441E+02  0.34977063672E+03  0.50170176600E+03  0.35000000000E+03 0.  0.
 -1000006    1    1    2    0  503 -0.27579691297E+02  0.78131455441E+02 -0.13129025851E+03  0.38288679225E+03  0.35000000000E+03 0.  0.
<scales pt_clust_1="13000.00000" pt_clust_2="13000.00000"></scales>
<clustering>
<clus scale="  359.674">  1  3  2 -1</clus>
<clus scale="  359.674">  1  3  2 -1</clus>
</clustering>
</event>
<event>
 6   2  0.3464723E-02  0.4908212E+03  0.7816531E-02  0.1016203E+00
       21   -1    0    0  501  502  0.00000000000E+00  0.00000000000E+00  0.19760754543E+04  0.19760754543E+04  0.00000000000E+00 0. -1.
       21   -1    0    0  504  503  0.00000000000E+00  0.00000000000E+00 -0.23312291546E+03  0.23312291546E+03  0.00000000000E+00 0.  1.
  1000006    1    1    2  501    0 -0.31816025454E+03 -0.20990538994E+03  0.85707289519E+03  0.10011793885E+04  0.35000000000E+03 0.  0.
 -1000006    1    1    2    0  505  0.25935655283E+03  0.17025476140E+03  0.67401267307E+03  0.82039355722E+03  0.35000000000E+03 0.  0.
       21    1    1    2  504  502  0.47302769978E+02  0.11775660987E+02  0.29509970823E+03  0.29909873961E+03  0.00000000000E+00 0.  1.
       21    1    1    2  505  503  0.11500931730E+02  0.27874967558E+02 -0.83232737628E+02  0.88526684452E+02  0.00000000000E+00 0.  1.
<scales pt_clust_1="13000.00000" pt_clust_2="13000.00000" pt_clust_3="48.99057" pt_clust_4="30.15436"></scales>
<clustering>
<clus scale="   30.154">  2  6  1 -1</clus>
<clus scale="   48.991">  1  5  2 -1</clus>
<clus scale="  490.821">  1  3  2 -1</clus>
<clus scale="  490.821">  1  3  2 -1</clus>
</clustering>
</event>
<event>
 4   0  0.3464723E-02  0.5188947E+03  0.7816531E-02  0.1008961E+00
       -2   -1    0    0    0  501  0.00000000000E+00  0.00000000000E+00  0.30872512132E+03  0.30872512132E+03  0.00000000000E+00 0. -1.
        2   -1    0    0  502    0  0.00000000000E+00  0.00000000000E+00 -0.10537982729E+04  0.10537982729E+04  0.00000000000E+00 0.  1.
  1000006    1    1    2  502    0 -0.10824768399E+03  0.36746989416E+03 -0.89682648044E+02  0.52658775296E+03  0.35000000000E+03 0.  0.
 -1000006    1    1    2    0  501  0.10824768399E+03 -0.36746989416E+03 -0.65539050354E+03  0.83593564126E+03  0.35000000000E+03 0.  0.
<scales pt_clust_1="13000.00000" pt_clust_2="13000.00000"></scales>
<clustering>
<clus scale="  966.352">  3  4 -1 -1</clus>
<clus scale="  518.895">  2  3  1 -1</clus>
</clustering>
</event>
<event>
 5   1  0.3464723E-02  0.3839331E+03  0.7816531E-02  0.1049490E+00
       21   -1    0    0  504  502  0.00000000000E+00  0.00000000000E+00  0.13550989149E+04  0.13550989149E+04  0.00000000000E+00 0.  1.
       21   -1    0    0  501  503  0.00000000000E+00  0.00000000000E+00 -0.32059502640E+03  0.32059502640E+03  0.00000000000E+00 0. -1.
  1000006    1    1    2  501    0  0.59338570652E+02 -0.18619021364E+03 -0.74424475164E+02  0.40770928874E+03  0.35000000000E+03 0.  0.
 -1000006    1    1    2    0  502  0.29065844837E+02  0.67855673186E+02  0.37075660261E+03  0.51517926404E+03  0.35000000000E+03 0.  0.
       21    1    1    2  504  503 -0.88404415490E+02  0.11833454046E+03  0.73817176103E+03  0.75280538848E+03  0.00000000000E+00 0.  1.
<scales pt_clust_1="13000.00000" pt_clust_2="13000.00000" pt_clust_3="147.71054"></scales>
<clustering>
<clus scale="  147.711">  1  5  2 -1</clus>
<clus scale="  383.933">  1  4  2 -1</clus>
<clus scale="  383.933">  1  3  2 -1</clus>
</clustering>
</event>
<event>
 4   0  0.3464723E-02  0.4195838E+03  0.7816531E-02  0.1037202E+00
       21   -1    0    0  501  502  0.00000000000E+00  0.00000000000E+00  0.13045127399E+03  0.13045127399E+03  0.00000000000E+00 0.  1.
       21   -1    0    0  502  503  0.00000000000E+00  0.00000000000E+00 -0.14351199894E+04  0.14351199894E+04  0.00000000000E+00 0.  1.
  1000006    1    1    2  501    0  0.19130377810E+03 -0.13020548217E+03 -0.46119162122E+03  0.62349684409E+03  0.35000000000E+03 0.  0.
 -1000006    1    1    2    0  503 -0.19130377810E+03  0.13020548217E+03 -0.84347709422E+03  0.94207441934E+03  0.35000000000E+03 0.  0.
<scales pt_clust_1="13000.00000" pt_clust_2="13000.00000"></scales>
<clustering>
<clus scale="  419.584">  1  3  2 -1</clus>
<clus scale="  419.584">  1  3  2 -1</clus>
</clustering>
</event>
<event>
 5   1  0.3464723E-02  0.4296632E+03  0.7816531E-02  0.1033966E+00
        2   -1    0    0  503    0  0.00000000000E+00  0.00000000000E+00  0.12364878757E+04  0.12364878757E+04  0.00000000000E+00 0.  1.
       21   -1    0    0  501  503  0.00000000000E+00  0.00000000000E+00 -0.23627517755E+03  0.23627517755E+03  0.00000000000E+00 0.  1.
  1000006    1    1    2  501    0 -0.17697557588E+03 -0.61564344524E+02  0.31090175258E+03  0.50425234034E+03  0.35000000000E+03 0.  0.
 -1000006    1    1    2    0  502  0.27828551523E+03  0.15189368936E+03  0.30811292208E+03  0.56386886206E+03  0.35000000000E+03 0.  0.
        2    1    1    2  502    0 -0.10130993935E+03 -0.90329344833E+02  0.38119802345E+03  0.40464185081E+03  0.00000000000E+00 0.  1.
<scales pt_clust_1="13000.00000" pt_clust_2="13000.00000" pt_clust_3="135.73170"></scales>
<clustering>
<clus scale="  135.732">  1  5  2 -1</clus>
<clus scale="  429.663">  2  3  1 -1</clus>
<clus scale="  429.663">  2  3  1 -1</clus>
</clustering>
</event>
<event>
 5   1  0.3464723E-02  0.3708008E+03  0.7816531E-02  0.1054387E+00
       21   -1    0    0  504  502  0.00000000000E+00  0.00000000000E+00  0.20866153504E+04  0.20866153504E+04  0.00000000000E+00 0.  1.
       21   -1    0    0  501  503  0.00000000000E+00  0.00000000000E+00 -0.13756802157E+03  0.13756802157E+03  0.00000000000E+00 0.  1.
  1000006    1    1    2  501    0  0.38262115745E+02 -0.64617762554E+02  0.35623239465E+03  0.50501580543E+03  0.35000000000E+03 0.  0.
 -1000006    1    1    2    0  502  0.33619333634E+02  0.25915552443E+03  0.10041822911E+04  0.10950679976E+04  0.35000000000E+03 0.  0.
       21    1    1    2  504  503 -0.71881449379E+02 -0.19453776187E+03  0.58863264304E+03  0.62409956899E+03  0.00000000000E+00 0.  1.
<scales pt_clust_1="13000.00000" pt_clust_2="13000.00000" pt_clust_3="207.39307"></scales>
<clustering>
<clus scale="  207.393">  1  5  2 -1</clus>
<clus scale="  370.801">  2  3  1 -1</clus>
<clus scale="  370.801">  1  3  2 -1</clus>
</clustering>
</event>
<event>
 6   2  0.3464723E-02  0.5825940E+03  0.7816531E-02  0.9942191E-01
       21   -1    0    0  504  502  0.00000000000E+00  0.00000000000E+00  0.48374275868E+03  0.48374275868E+03  0.00000000000E+00 0. -1.
       21   -1    0    0  502  503  0.00000000000E+00  0.00000000000E+00 -0.11052800635E+04  0.11052800635E+04  0.00000000000E+00 0.  1.
  1000006    1    1    2  501    0 -0.13349225406E+03 -0.36013412654E+03 -0.14773750177E+03  0.54022508311E+03  0.35000000000E+03 0.  0.
 -1000006    1    1    2    0  505  0.17988469395E+03  0.50901730392E+03 -0.41037688512E+03  0.76312928567E+03  0.35000000000E+03 0.  0.
       21    1    1    2  504  501 -0.11990991207E+02 -0.15491533406E+03  0.52961162936E+02  0.16415672199E+03  0.00000000000E+00 0. -1.
       21    1    1    2  505  503 -0.34401448684E+02  0.60321566810E+01 -0.11638408083E+03  0.12151173135E+03  0.00000000000E+00 0. -1.
<scales pt_clust_1="13000.00000" pt_clust_2="13000.00000" pt_clust_3="155.20173" pt_clust_4="34.92630"></scales>
<clustering>
<clus scale="   34.926">  2  6  1 -1</clus>
<clus scale="  155.202">  1  5  2 -1</clus>
<clus scale="  582.594">  2  4  1 -1</clus>
<clus scale="  582.594">  1  3  2 -1</clus>
</clustering>
</event>
<event>
 6   2  0.3464723E-02  0.4007880E+03  0.7816531E-02  0.1043507E+00
       21   -1    0    0  505  502  0.00000000000E+00  0.00000000000E+00  0.22838056707E+04  0.22838056707E+04  0.00000000000E+00 0.  1.
       21   -1    0    0  501  503  0.00000000000E+00  0.00000000000E+00 -0.21453151485E+03  0.21453151485E+03  0.00000000000E+00 0.  1.
  1000006    1    1    2  501    0 -0.19737362764E+03  0.65942122146E+02  0.17692809898E+03  0.44396876531E+03  0.35000000000E+03 0.  0.
 -1000006    1    1    2    0  502  0.84899088732E+02 -0.20540179973E+03  0.49907527529E+03  0.64882500338E+03  0.35000000000E+03 0.  0.
       21    1    1    2  504  503  0.70658202575E+02  0.50276296592E+02  0.67704338265E+03  0.68257455972E+03  0.00000000000E+00 0.  1.
       21    1    1    2  505  504  0.41816336332E+02  0.89183380992E+02  0.71622739894E+03  0.72296885716E+03  0.00000000000E+00 0.  1.
<scales pt_clust_1="13000.00000" pt_clust_2="13000.00000" pt_clust_3="44.50042" pt_clust_4="185.33436"></scales>
<clustering>
<clus scale="   44.500">  5  6 -1 -1</clus>
<clus scale="  185.334">  1  5  2 -1</clus>
<clus scale="  400.788">  1  4  2 -1</clus>
<clus scale="  400.788">  1  3  2 -1</clus>
</clustering>
</event>
<event>
 4   0  0.3464723E-02  0.3713314E+03  0.7816531E-02  0.1054185E+00
       21   -1    0    0  501  502  0.00000000000E+00  0.00000000000E+00  0.49016701986E+03  0.49016701986E+03  0.00000000000E+00 0. -1.
       21   -1    0    0  502  503  0.00000000000E+00  0.00000000000E+00 -0.30684345744E+03  0.30684345744E+03  0.00000000000E+00 0. -1.
  1000006    1    1    2  501    0 -0.56787447595E+02  0.11028236017E+03  0.20662604878E+03  0.42494862890E+03  0.35000000000E+03 0.  0.
 -1000006    1    1    2    0  503  0.56787447595E+02 -0.11028236017E+03 -0.23302486365E+02  0.37206184841E+03  0.35000000000E+03 0.  0.
<scales pt_clust_1="13000.00000" pt_clust_2="13000.00000"></scales>
<clustering>
<clus scale="  371.331">  1  3  2 -1</clus>
<clus scale="  371.331">  1  3  2 -1</clus>
</clustering>
</event>
<event>
 4   0  0.3464723E-02  0.4872962E+03  0.7816531E-02  0.1017149E+00
       21   -1    0    0  503  502  0.00000000000E+00  0.00000000000E+00  0.32314498214E+03  0.32314498214E+03  0.00000000000E+00 0. -1.
       21   -1    0    0  501  503  0.00000000000E+00  0.00000000000E+00 -0.76892846341E+03  0.76892846341E+03  0.00000000000E+00 0. -1.
  1000006    1    1    2  501    0 -0.33794020021E+03 -0.27458721657E+02 -0.33787322155E+03  0.59297206861E+03  0.35000000000E+03 0.  0.
 -1000006    1    1    2    0  502  0.33794020021E+03  0.27458721657E+02 -0.10791025972E+03  0.49910137694E+03  0.35000000000E+03 0.  0.
<scales pt_clust_1="13000.00000" pt_clust_2="13000.00000"></scales>
<clustering>
<clus scale="  487.296">  2  3  1 -1</clus>
<clus scale="  487.296">  1  3  2 -1</clus>
</clustering>
</event>
<event>
 6   2  0.3464723E-02  0.3621592E+03  0.7816531E-02  0.1057732E+00
       -1   -1    0    0    0  501  0.00000000000E+00  0.00000000000E+00  0.41970900505E+03  0.41970900505E+03  0.00000000000E+00 0. -1.
       21   -1    0    0  502  503  0.00000000000E+00  0.00000000000E+00 -0.23435062240E+04  0.23435062240E+04  0.00000000000E+00 0. -1.
  1000006    1    1    2  502    0  0.10695328676E+03  0.36400631287E+01 -0.17986677798E+04  0.18355266377E+04  0.35000000000E+03 0.  0.
 -1000006    1    1    2    0  501 -0.37893277172E+02 -0.65468092673E+02 -0.44318069181E+03  0.56976407153E+03  0.35000000000E+03 0.  0.
       21    1    1    2  504  503 -0.57652638362E+02  0.26862775381E+02  0.35204510154E+02  0.72696581395E+02  0.00000000000E+00 0. -1.
       -1    1    1    2    0  504 -0.11407371228E+02  0.34965254164E+02  0.28284674250E+03  0.28522793843E+03  0.00000000000E+00 0. -1.
<scales pt_clust_1="13000.00000" pt_clust_2="13000.00000" pt_clust_3="74.35988" pt_clust_4="36.77903"></scales>
<clustering>
<clus scale="   36.779">  1  6  2 -1</clus>
<clus scale="   74.360">  1  5  2 -1</clus>
<clus scale="  362.159">  1  4  2 -1</clus>
<clus scale="  362.159">  2  3  1 -1</clus>
</clustering>
</event>
<event>
 4   0  0.3464723E-02  0.5794535E+03  0.7816531E-02  0.9948975E-01
        1   -1    0    0  502    0  0.00000000000E+00  0.00000000000E+00  0.97745242566E+03  0.97745242566E+03  0.00000000000E+00 0. -1.
       -1   -1    0    0    0  501  0.00000000000E+00  0.00000000000E+00 -0.36776892512E+03  0.36776892512E+03  0.00000000000E+00 0.  1.
  1000006    1    1    2  502    0 -0.18603707275E+03 -0.42267782276E+03  0.13210016819E+03  0.59432044279E+03  0.35000000000E+03 0.  0.
 -1000006    1    1    2    0  501  0.18603707275E+03  0.42267782276E+03  0.47758333234E+03  0.75090090799E+03  0.35000000000E+03 0.  0.
<scales pt_clust_1="13000.00000" pt_clust_2="13000.00000"></scales>
<clustering>
<clus scale=" 1034.605">  3  4 -1 -1</clus>
<clus scale="  579.453">  1  3  2 -1</clus>
</clustering>
</event>
<event>
 6   2  0.3464723E-02  0.3531877E+03  0.7816531E-02  0.1061314E+00
       21   -1    0    0  501  502  0.00000000000E+00  0.00000000000E+00  0.91602839549E+03  0.91602839549E+03  0.00000000000E+00 0.  1.
       21   -1    0    0  504  503  0.00000000000E+00  0.00000000000E+00 -0.48270720295E+03  0.48270720295E+03  0.00000000000E+00 0.  1.
  1000006    1    1    2  501    0  0.11124417873E+03 -0.51644626214E+02  0.20918941192E+02  0.37145664191E+03  0.35000000000E+03 0.  0.
 -1000006    1    1    2    0  503  0.15573742089E+03 -0.26441229361E+02 -0.13890075453E+03  0.40834630216E+03  0.35000000000E+03 0.  0.
       21    1    1    2  504  505 -0.13993158984E+03  0.45859362928E+02  0.33629884261E+03  0.36712510475E+03  0.00000000000E+00 0.  1.
       21    1    1    2  505  502 -0.12705000979E+03  0.32226492647E+02  0.21500416327E+03  0.25180754961E+03  0.00000000000E+00 0.  1.
<scales pt_clust_1="13000.00000" pt_clust_2="13000.00000" pt_clust_3="281.32299" pt_clust_4="39.64829"></scales>
<clustering>
<clus scale="   39.648">  5  6 -1 -1</clus>
<clus scale="  281.323">  1  5  2 -1</clus>
<clus scale="  353.188">  2  4  1 -1</clus>
<clus scale="  353.188">  1  3  2 -1</clus>
</clustering>
</event>
<event>
 5   1  0.3464723E-02  0.3696724E+03  0.7816531E-02  0.1054818E+00
       21   -1    0    0  501  503  0.00000000000E+00  0.00000000000E+00  0.26214124051E+03  0.26214124051E+03  0.00000000000E+00 0.  1.
       -1   -1    0    0    0  501  0.00000000000E+00  0.00000000000E+00 -0.92618775074E+03  0.92618775074E+03  0.00000000000E+00 0.  1.
  1000006    1    1    2  502    0 -0.10840543286E+03 -0.41409903354E+02 -0.14741361126E+03  0.39711118185E+03  0.35000000000E+03 0.  0.
 -1000006    1    1    2    0  503  0.12301395333E+03  0.12753174411E+02 -0.11544843024E+03  0.38874595331E+03  0.35000000000E+03 0.  0.
       -1    1    1    2    0  502 -0.14608520470E+02  0.28656728943E+02 -0.40118446873E+03  0.40247185608E+03  0.00000000000E+00 0.  1.
<scales pt_clust_1="13000.00000" pt_clust_2="13000.00000" pt_clust_3="32.16546"></scales>
<clustering>
<clus scale="   32.165">  2  5  1 -1</clus>
<clus scale="  369.672">  2  3  1 -1</clus>
<clus scale="  369.672">  1  3  2 -1</clus>
</clustering>
</event>
<event>
 6   2  0.3464723E-02  0.5213999E+03  0.7816531E-02  0.1019859E+00
       21   -1    0    0  504  502  0.00000000000E+00  0.00000000000E+00  0.16358707682E+04  0.16358707682E+04  0.00000000000E+00 0.  1.
       21   -1    0    0  501  503  0.00000000000E+00  0.00000000000E+00 -0.10680287565E+04  0.10680287565E+04  0.00000000000E+00 0.  1.
  1000006    1    1    2  501    0 -0.64948620302E+02  0.75939711646E+02 -0.60348882142E+03  0.70475805825E+03  0.35000000000E+03 0.  0.
 -1000006    1    1    2    0  505  0.90464412991E+02 -0.48294918520E+03 -0.78008369255E+02  0.60828367657E+03  0.35000000000E+03 0.  0.
       21    1    1    2  504  503 -0.16272066139E+03  0.16268395316E+03  0.20038286148E+03  0.30511862191E+03  0.00000000000E+00 0.  1.
       21    1    1    2  505  502  0.13720486870E+03  0.24432552040E+03  0.10489563409E+04  0.10857391680E+04  0.00000000000E+00 0.  1.
<scales pt_clust_1="13000.00000" pt_clust_2="13000.00000" pt_clust_3="230.09581" pt_clust_4="386.46843"></scales>
<clustering>
<clus scale="  230.096">  1  5  2 -1</clus>
<clus scale="  366.380">  2  3  1 -1</clus>
<clus scale="  386.468">  1  6  2 -1</clus>
<clus scale="  521.400">  1  3  2 -1</clus>
</clustering>
</event>
<event>
 5   1  0.3464723E-02  0.3729816E+03  0.7816531E-02  0.1053559E+00
       21   -1    0    0  501  502  0.00000000000E+00  0.00000000000E+00  0.28960868178E+03  0.28960868178E+03  0.00000000000E+00 0. -1.
       21   -1    0    0  504  503  0.00000000000E+00  0.00000000000E+00 -0.67480267221E+03  0.67480267221E+03  0.00000000000E+00 0. -1.
  1000006    1    1    2  501    0  0.75843734759E+02  0.12056617462E+03 -0.53126378942E+01  0.37791096661E+03  0.35000000000E+03 0.  0.
 -1000006    1    1    2    0  503 -0.75929742582E+02 -0.75567010738E+02 -0.23543550490E+03  0.43520750900E+03  0.35000000000E+03 0.  0.
       21    1    1    2  504  502  0.86007823231E-01 -0.44999163884E+02 -0.14444584763E+03  0.15129287837E+03  0.00000000000E+00 0. -1.
<scales pt_clust_1="13000.00000" pt_clust_2="13000.00000" pt_clust_3="44.99925"></scales>
<clustering>
<clus scale="   44.999">  2  5  1 -1</clus>
<clus scale="  372.982">  2  4  1 -1</clus>
<clus scale="  372.982">  1  3  2 -1</clus>
</clustering>
</event>
<event>
 5   1  0.3464723E-02  0.5003706E+03  0.7816531E-02  0.1013682E+00
       21   -1    0    0  501  502  0.00000000000E+00  0.00000000000E+00  0.54614626861E+03  0.54614626861E+03  0.00000000000E+00 0.  1.
       21   -1    0    0  502  503  0.00000000000E+00  0.00000000000E+00 -0.59052433600E+03  0.59052433600E+03  0.00000000000E+00 0.  1.
  1000006    1    1    2  501    0 -0.36800324665E+03  0.10440632313E+02  0.14148672324E+03  0.52730815393E+03  0.35000000000E+03 0.  0.
 -1000006    1    1    2    0  504  0.33888199717E+03 -0.55870464708E+02 -0.88856081858E+02  0.49835521480E+03  0.35000000000E+03 0.  0.
       21    1    1    2  504  503  0.29121249474E+02  0.45429832396E+02 -0.97008708771E+02  0.11100723589E+03  0.00000000000E+00 0.  1.
<scales pt_clust_1="13000.00000" pt_clust_2="13000.00000" pt_clust_3="53.96218"></scales>
<clustering>
<clus scale="   53.962">  2  5  1 -1</clus>
<clus scale="  500.371">  1  3  2 -1</clus>
<clus scale="  500.371">  1  3  2 -1</clus>
</clustering>
</event>
<event>
 5   1  0.3464723E-02  0.4104900E+03  0.7816531E-02  0.1040207E+00
       21   -1    0    0  501  503  0.00000000000E+00  0.00000000000E+00  0.32704971439E+03  0.32704971439E+03  0.00000000000E+00 0.  1.
        1   -1    0    0  503    0  0.00000000000E+00  0.00000000000E+00 -0.11296181015E+04  0.11296181015E+04  0.00000000000E+00 0. -1.
  1000006    1    1    2  501    0  0.19252484142E+03 -0.92107873978E+02 -0.98129772076E+02  0.42152001990E+03  0.35000000000E+03 0.  0.
 -1000006    1    1    2    0  502 -0.14307177317E+03  0.17543445971E+03 -0.10759807480E+03  0.43049288918E+03  0.35000000000E+03 0.  0.
        1    1    1    2  502    0 -0.49453068254E+02 -0.83326585735E+02 -0.59684054024E+03  0.60465490681E+03  0.00000000000E+00 0. -1.
<scales pt_clust_1="13000.00000" pt_clust_2="13000.00000" pt_clust_3="96.89647"></scales>
<clustering>
<clus scale="   96.896">  2  5  1 -1</clus>
<clus scale="  410.490">  1  3  2 -1</clus>
<clus scale="  410.490">  1  3  2 -1</clus>
</clustering>
</event>
<event>
 5   1  0.3464723E-02  0.4013076E+03  0.7816531E-02  0.1043328E+00
       21   -1    0    0  503  502  0.00000000000E+00  0.00000000000E+00  0.54825507544E+03  0.54825507544E+03  0.00000000000E+00 0. -1.
       21   -1    0    0  501  503  0.00000000000E+00  0.00000000000E+00 -0.78365739726E+03  0.78365739726E+03  0.00000000000E+00 0. -1.
  1000006    1    1    2  501    0  0.69686057300E+01  0.20266411786E+03 -0.59895875343E+03  0.72275368864E+03  0.35000000000E+03 0.  0.
 -1000006    1    1    2    0  504  0.78602396402E+02 -0.15661597952E+03  0.28448727492E+03  0.48388005885E+03  0.35000000000E+03 0.  0.
       21    1    1    2  504  502 -0.85571002132E+02 -0.46048138337E+02  0.79069156682E+02  0.12527872520E+03  0.00000000000E+00 0. -1.
<scales pt_clust_1="13000.00000" pt_clust_2="13000.00000" pt_clust_3="97.17421"></scales>
<clustering>
<clus scale="   97.174">  1  5  2 -1</clus>
<clus scale="  401.308">  1  4  2 -1</clus>
<clus scale="  401.308">  1  3  2 -1</clus>
</clustering>
</event>
<event>
 6   2  0.3464723E-02  0.4931287E+03  0.7816531E-02  0.1015588E+00
       21   -1    0    0  501  502  0.00000000000E+00  0.00000000000E+00  0.34148981171E+03  0.34148981171E+03  0.00000000000E+00 0. -1.
       21   -1    0    0  504  503  0.00000000000E+00  0.00000000000E+00 -0.11591509831E+04  0.11591509831E+04  0.00000000000E+00 0. -1.
  1000006    1    1    2  501    0 -0.25370339604E+03 -0.20877932194E+03 -0.23332957134E+03  0.53375734870E+03  0.35000000000E+03 0.  0.
 -1000006    1    1    2    0  503  0.32397167262E+03  0.18684522701E+03 -0.53607323251E+03  0.74144675745E+03  0.35000000000E+03 0.  0.
       21    1    1    2  504  505 -0.25673898007E+02 -0.22292587077E+02 -0.12311382448E+03  0.12772283373E+03  0.00000000000E+00 0.  1.
       21    1    1    2  505  502 -0.44594378569E+02  0.44226682009E+02  0.74855456969E+02  0.97713854900E+02  0.00000000000E+00 0. -1.
<scales pt_clust_1="13000.00000" pt_clust_2="13000.00000" pt_clust_3="34.00160" pt_clust_4="62.83562"></scales>
<clustering>
<clus scale="   34.002">  2  5  1 -1</clus>
<clus scale="   62.836">  1  6  2 -1</clus>
<clus scale="  493.129">  1  3  2 -1</clus>
<clus scale="  493.129">  1  3  2 -1</clus>
</clustering>
</event>
<event>
 6   2  0.3464723E-02  0.4537091E+03  0.7816531E-02  0.1026622E+00
       21   -1    0    0  502  503  0.00000000000E+00  0.00000000000E+00  0.29367420992E+03  0.29367420992E+03  0.00000000000E+00 0. -1.
        2   -1    0    0  501    0  0.00000000000E+00  0.00000000000E+00 -0.13958046431E+04  0.13958046431E+04  0.00000000000E+00 0. -1.
  1000006    1    1    2  501    0  0.95290932363E+02  0.28224673795E+03 -0.43616714041E+03  0.63362872192E+03  0.35000000000E+03 0.  0.
 -1000006    1    1    2    0  504 -0.57891240179E+02 -0.26153975175E+03 -0.22242376180E+03  0.49368691217E+03  0.35000000000E+03 0.  0.
       21    1    1    2  504  503  0.80007997623E+01 -0.63418802975E+02  0.39484916617E+02  0.75133321555E+02  0.00000000000E+00 0. -1.
        2    1    1    2  502    0 -0.45400491946E+02  0.42711816778E+02 -0.48302444763E+03  0.48702989741E+03  0.00000000000E+00 0. -1.
<scales pt_clust_1="13000.00000" pt_clust_2="13000.00000" pt_clust_3="62.98576" pt_clust_4="62.33381"></scales>
<clustering>
<clus scale="   62.334">  2  6  1 -1</clus>
<clus scale="   62.986">  1  5  2 -1</clus>
<clus scale="  453.709">  2  3  1 -1</clus>
<clus scale="  453.709">  1  3  2 -1</clus>
</clustering>
</event>
<event>
 5   1  0.3464723E-02  0.6872155E+03  0.7816531E-02  0.9739349E-01
       21   -1    0    0  504  502  0.00000000000E+00  0.00000000000E+00  0.21553950019E+04  0.21553950019E+04  0.00000000000E+00 0.  1.
       21   -1    0    0  502  503  0.00000000000E+00  0.00000000000E+00 -0.26504842736E+03  0.26504842736E+03  0.00000000000E+00 0. -1.
  1000006    1    1    2  501    0 -0.50938647778E+03 -0.34117175947E+03  0.91592851571E+03  0.11564159282E+04  0.35000000000E+03 0.  0.
 -1000006    1    1    2    0  503  0.48058917926E+03  0.31556201198E+03  0.64459038181E+03  0.93195606278E+03  0.35000000000E+03 0.  0.
       21    1    1    2  504  501  0.28797298527E+02  0.25609747491E+02  0.32982767703E+03  0.33207143825E+03  0.00000000000E+00 0. -1.
<scales pt_clust_1="13000.00000" pt_clust_2="13000.00000" pt_clust_3="38.53756"></scales>
<clustering>
<clus scale="   38.538">  1  5  2 -1</clus>
<clus scale="  687.216">  1  3  2 -1</clus>
<clus scale="  687.216">  1  3  2 -1</clus>
</clustering>
</event>
<event>
 6   2  0.3464723E-02  0.4331269E+03  0.7816531E-02  0.1032877E+00
       21   -1    0    0  501  502  0.00000000000E+00  0.00000000000E+00  0.56109096075E+03  0.56109096075E+03  0.00000000000E+00 0. -1.
       21   -1    0    0  505  503  0.00000000000E+00  0.00000000000E+00 -0.30437127458E+04  0.30437127458E+04  0.00000000000E+00 0. -1.
  1000006    1    1    2  501    0  0.51061286524E+01  0.11865204743E+03  0.15130022549E+03  0.39936967729E+03  0.35000000000E+03 0.  0.
 -1000006    1    1    2    0  503  0.44461199161E+03 -0.16070937430E+03 -0.15280577075E+04  0.16373660811E+04  0.35000000000E+03 0.  0.
       21    1    1    2  504  502 -0.13485744823E+03  0.13192217805E+03  0.16811053668E+03  0.25268784092E+03  0.00000000000E+00 0. -1.
       21    1    1    2  505  504 -0.31486067204E+03 -0.89864851180E+02 -0.12739748397E+04  0.13153801072E+04  0.00000000000E+00 0. -1.
<scales pt_clust_1="13000.00000" pt_clust_2="13000.00000" pt_clust_3="188.65310" pt_clust_4="333.09241"></scales>
<clustering>
<clus scale="  188.653">  1  5  2 -1</clus>
<clus scale="  333.092">  2  6  1 -1</clus>
<clus scale="  433.127">  2  4  1 -1</clus>
<clus scale="  433.127">  1  3  2 -1</clus>
</clustering>
</event>
<event>
 6   2  0.3464723E-02  0.3611282E+03  0.7816531E-02  0.1058138E+00
       21   -1    0    0  501  502  0.00000000000E+00  0.00000000000E+00  0.13956708530E+03  0.13956708530E+03  0.00000000000E+00 0.  1.
       21   -1    0    0  504  503  0.00000000000E+00  0.00000000000E+00 -0.19693308495E+04  0.19693308495E+04  0.00000000000E+00 0.  1.
  1000006    1    1    2  501    0 -0.30051379313E+02 -0.64784838858E+02 -0.29994201005E+03  0.46643903153E+03  0.35000000000E+03 0.  0.
 -1000006    1    1    2    0  505 -0.65552775596E+02  0.13451873614E+03 -0.67456485456E+03  0.77455161208E+03  0.35000000000E+03 0.  0.
       21    1    1    2  504  502  0.63447510645E+02 -0.39536465910E+02 -0.24730959882E+03  0.25836167752E+03  0.00000000000E+00 0.  1.
       21    1    1    2  505  503  0.32156644264E+02 -0.30197431374E+02 -0.60794730074E+03  0.60954561364E+03  0.00000000000E+00 0.  1.
<scales pt_clust_1="13000.00000" pt_clust_2="13000.00000" pt_clust_3="82.81253" pt_clust_4="44.11275"></scales>
<clustering>
<clus scale="   44.113">  2  6  1 -1</clus>
<clus scale="   82.813">  2  5  1 -1</clus>
<clus scale="  361.128">  2  4  1 -1</clus>
<clus scale="  361.128">  1  3  2 -1</clus>
</clustering>
</event>
<event>
 5   1  0.3464723E-02  0.3783807E+03  0.7816531E-02  0.1051534E+00
       21   -1    0    0  502  503  0.00000000000E+00  0.00000000000E+00  0.39597908795E+03  0.39597908795E+03  0.00000000000E+00 0.  1.
        1   -1    0    0  501    0  0.00000000000E+00  0.00000000000E+00 -0.91541276877E+03  0.91541276877E+03  0.00000000000E+00 0.  1.
  1000006    1    1    2  501    0 -0.19036311176E+02 -0.25541396867E+03 -0.39166040749E+03  0.58437706263E+03  0.35000000000E+03 0.  0.
 -1000006    1    1    2    0  503 -0.70927007351E+02 -0.70701148263E+02  0.37118502853E+01  0.36406465163E+03  0.35000000000E+03 0.  0.
        1    1    1    2  502    0  0.89963318527E+02  0.32611511693E+03 -0.13148512362E+03  0.36295014245E+03  0.00000000000E+00 0.  1.
<scales pt_clust_1="13000.00000" pt_clust_2="13000.00000" pt_clust_3="338.29642"></scales>
<clustering>
<clus scale="  338.296">  1  5  2 -1</clus>
<clus scale="  516.811">  3  4 -1 -1</clus>
<clus scale="  378.381">  1  3  2 -1</clus>
</clustering>
</event>
<event>
 5   1  0.3464723E-02  0.3646137E+03  0.7816531E-02  0.1056772E+00
       21   -1    0    0  501  502  0.00000000000E+00  0.00000000000E+00  0.24170034459E+04  0.24170034459E+04  0.00000000000E+00 0.  1.
       21   -1    0    0  504  503  0.00000000000E+00  0.00000000000E+00 -0.72931851253E+02  0.72931851253E+02  0.00000000000E+00 0.  1.
  1000006    1    1    2  501    0  0.35183689581E+02 -0.85214858924E+02  0.14326994460E+04  0.14777101092E+04  0.35000000000E+03 0.  0.
 -1000006    1    1    2    0  503  0.14753243377E+02  0.12965047826E+03  0.77972832879E+03  0.86458265736E+03  0.35000000000E+03 0.  0.
       21    1    1    2  504  502 -0.49936932958E+02 -0.44435619335E+02  0.13164381988E+03  0.14764253063E+03  0.00000000000E+00 0. -1.
<scales pt_clust_1="13000.00000" pt_clust_2="13000.00000" pt_clust_3="66.84476"></scales>
<clustering>
<clus scale="   66.845">  2  5  1 -1</clus>
<clus scale="  364.614">  1  3  2 -1</clus>
<clus scale="  364.614">  1  3  2 -1</clus>
</clustering>
</event>
<event>
 6   2  0.3464723E-02  0.8553233E+03  0.7816531E-02  0.9483220E-01
       21   -1    0    0  504  503  0.00000000000E+00  0.00000000000E+00  0.13867618308E+04  0.13867618308E+04  0.00000000000E+00 0.  1.
        1   -1    0    0  501    0  0.00000000000E+00  0.00000000000E+00 -0.17110567369E+04  0.17110567369E+04  0.00000000000E+00 0.  1.
  1000006    1    1    2  501    0  0.59137263157E+03  0.59458223279E+03 -0.77891969253E+03  0.11968565112E+04  0.35000000000E+03 0.  0.
 -1000006    1    1    2    0  503 -0.20616698159E+03 -0.72950576180E+03  0.87663939452E+03  0.12106527615E+04  0.35000000000E+03 0.  0.
       21    1    1    2  504  502  0.30258494929E+02 -0.51332388368E+02  0.12563598792E+02  0.60896918030E+02  0.00000000000E+00 0. -1.
        1    1    1    2  502    0 -0.41546414491E+03  0.18625591737E+03 -0.43457820685E+03  0.62941237701E+03  0.00000000000E+00 0.  1.
<scales pt_clust_1="13000.00000" pt_clust_2="13000.00000" pt_clust_3="59.58683" pt_clust_4="451.80319"></scales>
<clustering>
<clus scale="   59.587">  1  5  2 -1</clus>
<clus scale="  451.803">  2  6  1 -1</clus>
<clus scale="  855.323">  1  4  2 -1</clus>
<clus scale="  855.323">  1  3  2 -1</clus>
</clustering>
</event>
<event>
 6   2  0.3464723E-02  0.4237792E+03  0.7816531E-02  0.1035843E+00
       21   -1    0    0  501  502  0.00000000000E+00  0.00000000000E+00  0.14920254696E+04  0.14920254696E+04  0.00000000000E+00 0.  1.
       21   -1    0    0  504  503  0.00000000000E+00  0.00000000000E+00 -0.77464316600E+03  0.77464316600E+03  0.00000000000E+00 0. -1.
  1000006    1    1    2  501    0 -0.29826678499E+03  0.11156320517E+03  0.92793092847E+03  0.10416166434E+04  0.35000000000E+03 0.  0.
 -1000006    1    1    2    0  503  0.88415129624E+02 -0.17434914109E+03  0.28406420523E+03  0.49133220008E+03  0.35000000000E+03 0.  0.
       21    1    1    2  504  505  0.12069714982E+03  0.35630383942E+02 -0.58827721593E+03  0.60158740763E+03  0.00000000000E+00 0. -1.
       21    1    1    2  505  502  0.89154505544E+02  0.27155551972E+02  0.93664385830E+02  0.13213238450E+03  0.00000000000E+00 0.  1.
<scales pt_clust_1="13000.00000" pt_clust_2="13000.00000" pt_clust_3="126.29616" pt_clust_4="93.19844"></scales>
<clustering>
<clus scale="   93.198">  1  6  2 -1</clus>
<clus scale="  126.296">  2  5  1 -1</clus>
<clus scale="  423.779">  2  4  1 -1</clus>
<clus scale="  423.779">  1  3  2 -1</clus>
</clustering>
</event>
<event>
 4   0  0.3464723E-02  0.4144363E+03  0.7816531E-02  0.1038892E+00
       21   -1    0    0  501  502  0.00000000000E+00  0.00000000000E+00  0.16880117357E+03  0.16880117357E+03  0.00000000000E+00 0. -1.
       21   -1    0    0  502  503  0.00000000000E+00  0.00000000000E+00 -0.10956000675E+04  0.10956000675E+04  0.00000000000E+00 0. -1.
  1000006    1    1    2  501    0 -0.21329942667E+03  0.61325144339E+02 -0.29462062491E+03  0.50848670717E+03  0.35000000000E+03 0.  0.
 -1000006    1    1    2    0  503  0.21329942667E+03 -0.61325144339E+02 -0.63217826905E+03  0.75591453393E+03  0.35000000000E+03 0.  0.
<scales pt_clust_1="13000.00000" pt_clust_2="13000.00000"></scales>
<clustering>
<clus scale="  414.436">  1  3  2 -1</clus>
<clus scale="  414.436">  1  3  2 -1</clus>
</clustering>
</event>
<event>
 5   1  0.3464723E-02  0.5982117E+03  0.7816531E-02  0.9909123E-01
       21   -1    0    0  504  502  0.00000000000E+00  0.00000000000E+00  0.19904822636E+04  0.19904822636E+04  0.00000000000E+00 0.  1.
       21   -1    0    0  502  503  0.00000000000E+00  0.00000000000E+00 -0.23540202482E+03  0.23540202482E+03  0.00000000000E+00 0.  1.
  1000006    1    1    2  501    0  0.46018278838E+03  0.19309679314E+03  0.13272853690E+04  0.14605618854E+04  0.35000000000E+03 0.  0.
 -1000006    1    1    2    0  503 -0.43329769317E+03 -0.20642498824E+03  0.36896252143E+03  0.69927927818E+03  0.35000000000E+03 0.  0.
       21    1    1    2  504  501 -0.26885095207E+02  0.13328195096E+02  0.58832348338E+02  0.66043124848E+02  0.00000000000E+00 0.  1.
<scales pt_clust_1="13000.00000" pt_clust_2="13000.00000" pt_clust_3="30.00748"></scales>
<clustering>
<clus scale="   30.007">  1  5  2 -1</clus>
<clus scale="  598.212">  1  3  2 -1</clus>
<clus scale="  598.212">  1  3  2 -1</clus>
</clustering>
</event>
<event>
 5   1  0.3464723E-02  0.3535486E+03  0.7816531E-02  0.1061168E+00
       21   -1    0    0  502  503  0.00000000000E+00  0.00000000000E+00  0.76628154048E+03  0.76628154048E+03  0.00000000000E+00 0. -1.
        2   -1    0    0  501    0  0.00000000000E+00  0.00000000000E+00 -0.24076730051E+04  0.24076730051E+04  0.00000000000E+00 0.  1.
  1000006    1    1    2  501    0  0.21116348613E+02  0.16396013833E+03  0.22569592080E+03  0.44807083793E+03  0.35000000000E+03 0.  0.
 -1000006    1    1    2    0  503 -0.65669254337E+02  0.88805215316E+02  0.34216486556E+03  0.50177247080E+03  0.35000000000E+03 0.  0.
        2    1    1    2  502    0  0.44552905724E+02 -0.25276535365E+03 -0.22092522510E+04  0.22241112368E+04  0.00000000000E+00 0.  1.
<scales pt_clust_1="13000.00000" pt_clust_2="13000.00000" pt_clust_3="256.66181"></scales>
<clustering>
<clus scale="  256.662">  2  5  1 -1</clus>
<clus scale="  353.549">  1  4  2 -1</clus>
<clus scale="  353.549">  1  3  2 -1</clus>
</clustering>
</event>
<event>
 5   1  0.3464723E-02  0.3519506E+03  0.7816531E-02  0.1061817E+00
       21   -1    0    0  504  502  0.00000000000E+00  0.00000000000E+00  0.25443335339E+03  0.25443335339E+03  0.00000000000E+00 0. -1.
       21   -1    0    0  501  503  0.00000000000E+00  0.00000000000E+00 -0.96094886683E+03  0.96094886683E+03  0.00000000000E+00 0. -1.
  1000006    1    1    2  501    0  0.82920292406E+01 -0.26175006342E+02 -0.67671132689E+03  0.76235956651E+03  0.35000000000E+03 0.  0.
 -1000006    1    1    2    0  502  0.43801996406E+02  0.84612457699E+02  0.14580814626E+02  0.36302958976E+03  0.35000000000E+03 0.  0.
       21    1    1    2  504  503 -0.52094025646E+02 -0.58437451357E+02 -0.44385001176E+02  0.89993063947E+02  0.00000000000E+00 0. -1.
<scales pt_clust_1="13000.00000" pt_clust_2="13000.00000" pt_clust_3="78.28616"></scales>
<clustering>
<clus scale="   78.286">  1  5  2 -1</clus>
<clus scale="  351.951">  2  3  1 -1</clus>
<clus scale="  351.951">  1  3  2 -1</clus>
</clustering>
</event>
<event>
 5   1  0.3464723E-02  0.3796482E+03  0.7816531E-02  0.1051064E+00
       21   -1    0    0  503  502  0.00000000000E+00  0.00000000000E+00  0.53440857208E+03  0.53440857208E+03  0.00000000000E+00 0.  1.
       21   -1    0    0  504  503  0.00000000000E+00  0.00000000000E+00 -0.37361903978E+03  0.37361903978E+03  0.00000000000E+00 0.  1.
  1000006    1    1    2  501    0 -0.42242262779E+02 -0.14255648852E+03 -0.75016703763E+02  0.38760065406E+03  0.35000000000E+03 0.  0.
 -1000006    1    1    2    0  502  0.70953333673E+02  0.12921218851E+03  0.27584473028E+03  0.46938308496E+03  0.35000000000E+03 0.  0.
       21    1    1    2  504  501 -0.28711070894E+02  0.13344300009E+02 -0.40038494222E+02  0.51043872837E+02  0.00000000000E+00 0.  1.
<scales pt_clust_1="13000.00000" pt_clust_2="13000.00000" pt_clust_3="31.66064"></scales>
<clustering>
<clus scale="   31.661">  2  5  1 -1</clus>
<clus scale="  379.648">  1  4  2 -1</clus>
<clus scale="  379.648">  1  3  2 -1</clus>
</clustering>
</event>
<event>
 6   2  0.3464723E-02  0.3602520E+03  0.7816531E-02  0.1058484E+00
       21   -1    0    0  505  502  0.00000000000E+00  0.00000000000E+00  0.15217726660E+04  0.15217726660E+04  0.00000000000E+00 0.  1.
       21   -1    0    0  504  503  0.00000000000E+00  0.00000000000E+00 -0.53246698060E+03  0.53246698060E+03  0.00000000000E+00 0. -1.
  1000006    1    1    2  501    0 -0.11914163913E+02 -0.11023523526E+03  0.88816499572E+03  0.96105713359E+03  0.35000000000E+03 0.  0.
 -1000006    1    1    2    0  503 -0.22113913814E+02  0.87478203558E+02  0.38263412425E+03  0.52635571083E+03  0.35000000000E+03 0.  0.
       21    1    1    2  504  502  0.20442687011E+01 -0.31441580881E+02 -0.41659610903E+03  0.41778591420E+03  0.00000000000E+00 0. -1.
       21    1    1    2  505  501  0.31983809025E+02  0.54198612578E+02  0.13510267446E+03  0.14904088799E+03  0.00000000000E+00 0. -1.
<scales pt_clust_1="13000.00000" pt_clust_2="13000.00000" pt_clust_3="31.50797" pt_clust_4="61.36728"></scales>
<clustering>
<clus scale="   31.508">  2  5  1 -1</clus>
<clus scale="   61.367">  1  6  2 -1</clus>
<clus scale="  360.252">  1  3  2 -1</clus>
<clus scale="  360.252">  1  3  2 -1</clus>
</clustering>
</event>
<event>
 5   1  0.3464723E-02  0.3837245E+03  0.7816531E-02  0.1049566E+00
       21   -1    0    0  501  502  0.00000000000E+00  0.00000000000E+00  0.35852768532E+03  0.35852768532E+03  0.00000000000E+00 0. -1.
       21   -1    0    0  504  503  0.00000000000E+00  0.00000000000E+00 -0.11248398013E+04  0.11248398013E+04  0.00000000000E+00 0. -1.
  1000006    1    1    2  501    0 -0.44460300487E+02 -0.96826104896E+02  0.16250739870E+03  0.40032570182E+03  0.35000000000E+03 0.  0.
 -1000006    1    1    2    0  503  0.77696748576E+02  0.14462753358E+03 -0.94632611518E+03  0.10222460685E+04  0.35000000000E+03 0.  0.
       21    1    1    2  504  502 -0.33236448088E+02 -0.47801428689E+02  0.17506600496E+02  0.60795716355E+02  0.00000000000E+00 0.  1.
<scales pt_clust_1="13000.00000" pt_clust_2="13000.00000" pt_clust_3="58.22060"></scales>
<clustering>
<clus scale="   58.221">  1  5  2 -1</clus>
<clus scale="  383.725">  1  3  2 -1</clus>
<clus scale="  383.725">  1  3  2 -1</clus>
</clustering>
</event>
<event>
 6   2  0.3464723E-02  0.3920422E+03  0.7816531E-02  0.1046571E+00
        2   -1    0    0  501    0  0.00000000000E+00  0.00000000000E+00  0.18807486903E+04  0.18807486903E+04  0.00000000000E+00 0.  1.
       21   -1    0    0  504  503  0.00000000000E+00  0.00000000000E+00 -0.26749759262E+03  0.26749759262E+03  0.00000000000E+00 0.  1.
  1000006    1    1    2  501    0  0.13551704886E+03  0.18948151866E+03  0.77163693905E+03  0.87874437816E+03  0.35000000000E+03 0.  0.
 -1000006    1    1    2    0  503 -0.93136912527E+02 -0.54911776455E+02  0.18238252159E+03  0.40921042490E+03  0.35000000000E+03 0.  0.
       21    1    1    2  504  502 -0.78313083414E+02 -0.48176521213E+02 -0.75902178187E+02  0.11922691342E+03  0.00000000000E+00 0.  1.
        2    1    1    2  502    0  0.35932947082E+02 -0.86393220994E+02  0.73513381527E+03  0.74106456647E+03  0.00000000000E+00 0.  1.
<scales pt_clust_1="13000.00000" pt_clust_2="13000.00000" pt_clust_3="91.94518" pt_clust_4="93.83277"></scales>
<clustering>
<clus scale="   91.945">  2  5  1 -1</clus>
<clus scale="   93.833">  1  6  2 -1</clus>
<clus scale="  392.042">  1  3  2 -1</clus>
<clus scale="  392.042">  2  3  1 -1</clus>
</clustering>
</event>
<event>
 5   1  0.3464723E-02  0.3733109E+03  0.7816531E-02  0.1053434E+00
       21   -1    0    0  501  502  0.00000000000E+00  0.00000000000E+00  0.42965067838E+03  0.42965067838E+03  0.00000000000E+00 0. -1.
       21   -1    0    0  504  503  0.00000000000E+00  0.00000000000E+00 -0.60307602084E+03  0.60307602084E+03  0.00000000000E+00 0. -1.
  1000006    1    1    2  501    0 -0.62704182608E+02 -0.14317594897E+03  0.13156357279E+03  0.40526551860E+03  0.35000000000E+03 0.  0.
 -1000006    1    1    2    0  503  0.53480954952E+02  0.11026870224E+03 -0.38859150479E+03  0.53714314371E+03  0.35000000000E+03 0.  0.
       21    1    1    2  504  502  0.92232276562E+01  0.32907246726E+02  0.83602589535E+02  0.90318036916E+02  0.00000000000E+00 0. -1.
<scales pt_clust_1="13000.00000" pt_clust_2="13000.00000" pt_clust_3="34.17535"></scales>
<clustering>
<clus scale="   34.175">  1  5  2 -1</clus>
<clus scale="  373.311">  1  3  2 -1</clus>
<clus scale="  373.311">  1  3  2 -1</clus>
</clustering>
</event>
<event>
 5   1  0.3464723E-02  0.5087001E+03  0.7816531E-02  0.1011533E+00
        2   -1    0    0  503    0  0.00000000000E+00  0.00000000000E+00  0.82943777229E+03  0.82943777229E+03  0.00000000000E+00 0. -1.
       21   -1    0    0  501  503  0.00000000000E+00  0.00000000000E+00 -0.12493667253E+04  0.12493667253E+04  0.00000000000E+00 0.  1.
  1000006    1    1    2  501    0  0.27863191901E+03  0.22408779950E+03 -0.95215765913E+03  0.10756185644E+04  0.35000000000E+03 0.  0.
 -1000006    1    1    2    0  502 -0.24748403080E+03 -0.39130447649E+03  0.17286157081E+03  0.60559777203E+03  0.35000000000E+03 0.  0.
        2    1    1    2  502    0 -0.31147888207E+02  0.16721667699E+03  0.35936713530E+03  0.39758816121E+03  0.00000000000E+00 0. -1.
<scales pt_clust_1="13000.00000" pt_clust_2="13000.00000" pt_clust_3="170.09294"></scales>
<clustering>
<clus scale="  170.093">  1  5  2 -1</clus>
<clus scale="  508.700">  1  4  2 -1</clus>
<clus scale="  508.700">  2  3  1 -1</clus>
</clustering>
</event>
<event>
 5   1  0.3464723E-02  0.6883712E+03  0.7816531E-02  0.9870379E-01
        2   -1    0    0  503    0  0.00000000000E+00  0.00000000000E+00  0.10730856896E+04  0.10730856896E+04  0.00000000000E+00 0. -1.
       21   -1    0    0  501  503  0.00000000000E+00  0.00000000000E+00 -0.12950014897E+04  0.12950014897E+04  0.00000000000E+00 0. -1.
  1000006    1    1    2  501    0  0.12691199347E+03 -0.24345124152E+03 -0.14509385447E+03  0.46789677034E+03  0.35000000000E+03 0.  0.
 -1000006    1    1    2    0  502 -0.64667471276E+03 -0.41042353900E+02 -0.71702875285E+03  0.10278632649E+04  0.35000000000E+03 0.  0.
        2    1    1    2  502    0  0.51976271929E+03  0.28449359542E+03  0.64020680720E+03  0.87232714401E+03  0.00000000000E+00 0. -1.
<scales pt_clust_1="13000.00000" pt_clust_2="13000.00000" pt_clust_3="592.75200"></scales>
<clustering>
<clus scale="  444.832">  2  3  1 -1</clus>
<clus scale="  592.752">  1  5  2 -1</clus>
<clus scale="  688.371">  2  3  1 -1</clus>
</clustering>
</event>
<event>
 5   1  0.3464723E-02  0.3541370E+03  0.7816531E-02  0.1060930E+00
       21   -1    0    0  501  502  0.00000000000E+00  0.00000000000E+00  0.95202714605E+03  0.95202714605E+03  0.00000000000E+00 0. -1.
       21   -1    0    0  504  503  0.00000000000E+00  0.00000000000E+00 -0.36213555432E+03  0.36213555432E+03  0.00000000000E+00 0. -1.
  1000006    1    1    2  501    0 -0.10284447318E+03  0.95766804808E+01  0.56962767243E+02  0.36934192197E+03  0.35000000000E+03 0.  0.
 -1000006    1    1    2    0  503  0.14520174012E+02 -0.21943978419E+02 -0.50511090628E+02  0.35460364341E+03  0.35000000000E+03 0.  0.
       21    1    1    2  504  502  0.88324299168E+02  0.12367297938E+02  0.58343991512E+03  0.59021713499E+03  0.00000000000E+00 0. -1.
<scales pt_clust_1="13000.00000" pt_clust_2="13000.00000" pt_clust_3="89.18594"></scales>
<clustering>
<clus scale="   89.186">  1  5  2 -1</clus>
<clus scale="  354.137">  1  3  2 -1</clus>
<clus scale="  354.137">  1  3  2 -1</clus>
</clustering>
</event>
<event>
 5   1  0.3464723E-02  0.3737086E+03  0.7816531E-02  0.1053284E+00
        2   -1    0    0  501    0  0.00000000000E+00  0.00000000000E+00  0.19601969158E+04  0.19601969158E+04  0.00000000000E+00 0. -1.
       21   -1    0    0  502  503  0.00000000000E+00  0.00000000000E+00 -0.97316871911E+02  0.97316871911E+02  0.00000000000E+00 0. -1.
  1000006    1    1    2  501    0  0.67741134156E+02 -0.98614560419E+02  0.80944079045E+03  0.88994836144E+03  0.35000000000E+03 0.  0.
 -1000006    1    1    2    0  503  0.29574142919E+02  0.16209211776E+03  0.82998751659E+03  0.91571161523E+03  0.35000000000E+03 0.  0.
        2    1    1    2  502    0 -0.97315277075E+02 -0.63477557342E+02  0.22345173688E+03  0.25185381107E+03  0.00000000000E+00 0. -1.
<scales pt_clust_1="13000.00000" pt_clust_2="13000.00000" pt_clust_3="116.18805"></scales>
<clustering>
<clus scale="  116.188">  2  5  1 -1</clus>
<clus scale="  437.816">  3  4 -1 -1</clus>
<clus scale="  373.709">  2  3  1 -1</clus>
</clustering>
</event>
<event>
 6   2  0.3464723E-02  0.3517051E+03  0.7816531E-02  0.1061917E+00
       21   -1    0    0  504  503  0.00000000000E+00  0.00000000000E+00  0.35664953390E+03  0.35664953390E+03  0.00000000000E+00 0. -1.
        4   -1    0    0  501    0  0.00000000000E+00  0.00000000000E+00 -0.61354927523E+03  0.61354927523E+03  0.00000000000E+00 0. -1.
  1000006    1    1    2  501    0 -0.51841808501E+02  0.41770973484E+02 -0.47595800968E+02  0.35944088193E+03  0.35000000000E+03 0.  0.
 -1000006    1    1    2    0  503 -0.48945339193E+02 -0.27171086720E+02 -0.33492487033E+02  0.35602761251E+03  0.35000000000E+03 0.  0.
       21    1    1    2  504  502  0.66301364998E+02 -0.11725254619E+02  0.78963075358E+01  0.67791623887E+02  0.00000000000E+00 0. -1.
        4    1    1    2  502    0  0.34485782695E+02 -0.28746321459E+01 -0.18370776086E+03  0.18693869080E+03  0.00000000000E+00 0. -1.
<scales pt_clust_1="13000.00000" pt_clust_2="13000.00000" pt_clust_3="69.74042" pt_clust_4="34.60539"></scales>
<clustering>
<clus scale="   34.605">  2  6  1 -1</clus>
<clus scale="   69.740">  1  5  2 -1</clus>
<clus scale="  351.705">  2  3  1 -1</clus>
<clus scale="  351.705">  1  3  2 -1</clus>
</clustering>
</event>
<event>
 5   1  0.3464723E-02  0.3539506E+03  0.7816531E-02  0.1061005E+00
       21   -1    0    0  504  502  0.00000000000E+00  0.00000000000E+00  0.61676167399E+03  0.61676167399E+03  0.00000000000E+00 0. -1.
       21   -1    0    0  501  503  0.00000000000E+00  0.00000000000E+00 -0.33630863240E+03  0.33630863240E+03  0.00000000000E+00 0. -1.
  1000006    1    1    2  501    0  0.89366537096E+00 -0.22569404748E+01 -0.40241718079E+02  0.35231418974E+03  0.35000000000E+03 0.  0.
 -1000006    1    1    2    0  502 -0.70141657391E+02  0.14452929024E+02  0.37042807853E+03  0.51463161642E+03  0.35000000000E+03 0.  0.
       21    1    1    2  504  503  0.69247992020E+02 -0.12195988550E+02 -0.49733318860E+02  0.86124500233E+02  0.00000000000E+00 0. -1.
<scales pt_clust_1="13000.00000" pt_clust_2="13000.00000" pt_clust_3="70.31377"></scales>
<clustering>
<clus scale="   70.314">  2  5  1 -1</clus>
<clus scale="  353.951">  1  4  2 -1</clus>
<clus scale="  353.951">  1  3  2 -1</clus>
</clustering>
</event>
<event>
 6   2  0.3464723E-02  0.4747135E+03  0.7816531E-02  0.1020598E+00
       21   -1    0    0  504  502  0.00000000000E+00  0.00000000000E+00  0.28184569964E+03  0.28184569964E+03  0.00000000000E+00 0.  1.
       21   -1    0    0  501  503  0.00000000000E+00  0.00000000000E+00 -0.18755066862E+04  0.18755066862E+04  0.00000000000E+00 0. -1.
  1000006    1    1    2  501    0  0.30963397668E+03 -0.28903345722E+03 -0.78397981627E+03  0.95735985462E+03  0.35000000000E+03 0.  0.
 -1000006    1    1    2    0  502 -0.88749557060E+02  0.28475208889E+03 -0.12435425143E+03  0.47636563253E+03  0.35000000000E+03 0.  0.
       21    1    1    2  504  505 -0.16768297542E+03  0.27646346365E+02 -0.44426646024E+03  0.47566226296E+03  0.00000000000E+00 0.  1.
       21    1    1    2  505  503 -0.53201444203E+02 -0.23364978036E+02 -0.24106045863E+03  0.24796463575E+03  0.00000000000E+00 0. -1.
<scales pt_clust_1="13000.00000" pt_clust_2="13000.00000" pt_clust_3="232.29917" pt_clust_4="41.98109"></scales>
<clustering>
<clus scale="   41.981">  5  6 -1 -1</clus>
<clus scale="  232.299">  2  5  1 -1</clus>
<clus scale="  474.713">  2  3  1 -1</clus>
<clus scale="  474.713">  1  3  2 -1</clus>
</clustering>
</event>
<event>
 6   2  0.3464723E-02  0.4382033E+03  0.7816531E-02  0.1031299E+00
       21   -1    0    0  505  502  0.00000000000E+00  0.00000000000E+00  0.10597817375E+04  0.10597817375E+04  0.00000000000E+00 0. -1.
       21   -1    0    0  501  503  0.00000000000E+00  0.00000000000E+00 -0.39086424917E+03  0.39086424917E+03  0.00000000000E+00 0. -1.
  1000006    1    1    2  501    0 -0.22666788005E+03  0.13541506956E+03  0.36156627605E+03  0.56828315203E+03  0.35000000000E+03 0.  0.
 -1000006    1    1    2    0  502  0.25238481538E+03 -0.75069919424E+02  0.45208617615E+03  0.62945651041E+03  0.35000000000E+03 0.  0.
       21    1    1    2  504  503 -0.64372577419E+02 -0.25512056140E+02 -0.17810428650E+03  0.19109115783E+03  0.00000000000E+00 0. -1.
       21    1    1    2  505  504  0.38655642085E+02 -0.34833093992E+02  0.33369322609E+02  0.61815166371E+02  0.00000000000E+00 0.  1.
<scales pt_clust_1="13000.00000" pt_clust_2="13000.00000" pt_clust_3="69.09617" pt_clust_4="52.03463"></scales>
<clustering>
<clus scale="   52.035">  1  6  2 -1</clus>
<clus scale="   69.096">  2  5  1 -1</clus>
<clus scale="  438.203">  1  4  2 -1</clus>
<clus scale="  438.203">  1  3  2 -1</clus>
</clustering>
</event>
<event>
 4   0  0.3464723E-02  0.3891926E+03  0.7816531E-02  0.1047588E+00
       21   -1    0    0  501  502  0.00000000000E+00  0.00000000000E+00  0.36005884092E+03  0.36005884092E+03  0.00000000000E+00 0.  1.
       21   -1    0    0  502  503  0.00000000000E+00  0.00000000000E+00 -0.43852140714E+03  0.43852140714E+03  0.00000000000E+00 0.  1.
  1000006    1    1    2  501    0 -0.16995034046E+03 -0.93662305298E+01  0.41299897698E+02  0.39137772809E+03  0.35000000000E+03 0.  0.
 -1000006    1    1    2    0  503  0.16995034046E+03  0.93662305298E+01 -0.11976246392E+03  0.40720251996E+03  0.35000000000E+03 0.  0.
<scales pt_clust_1="13000.00000" pt_clust_2="13000.00000"></scales>
<clustering>
<clus scale="  389.193">  1  3  2 -1</clus>
<clus scale="  389.193">  1  3  2 -1</clus>
</clustering>
</event>
<event>
 4   0  0.3464723E-02  0.3938606E+03  0.7816531E-02  0.1045927E+00
       21   -1    0    0  501  502  0.00000000000E+00  0.00000000000E+00  0.15023059177E+04  0.15023059177E+04  0.00000000000E+00 0.  1.
       21   -1    0    0  502  503  0.00000000000E+00  0.00000000000E+00 -0.15119624149E+03  0.15119624149E+03  0.00000000000E+00 0.  1.
  1000006    1    1    2  501    0 -0.93592494918E+01 -0.18038446140E+03  0.11410789406E+04  0.12071401320E+04  0.35000000000E+03 0.  0.
 -1000006    1    1    2    0  503  0.93592494918E+01  0.18038446140E+03  0.21003073560E+03  0.44636202724E+03  0.35000000000E+03 0.  0.
<scales pt_clust_1="13000.00000" pt_clust_2="13000.00000"></scales>
<clustering>
<clus scale="  393.861">  1  3  2 -1</clus>
<clus scale="  393.861">  1  3  2 -1</clus>
</clustering>
</event>
<event>
 4   0  0.3464723E-02  0.3523871E+03  0.7816531E-02  0.1061640E+00
       21   -1    0    0  501  502  0.00000000000E+00  0.00000000000E+00  0.72843842041E+03  0.72843842041E+03  0.00000000000E+00 0.  1.
       21   -1    0    0  502  503  0.00000000000E+00  0.00000000000E+00 -0.19591766602E+03  0.19591766602E+03  0.00000000000E+00 0.  1.
  1000006    1    1    2  501    0  0.38246190045E+02  0.14626089629E+02  0.43283117963E+03  0.55813934068E+03  0.35000000000E+03 0.  0.
 -1000006    1    1    2    0  503 -0.38246190045E+02 -0.14626089629E+02  0.99689574759E+02  0.36621674575E+03  0.35000000000E+03 0.  0.
<scales pt_clust_1="13000.00000" pt_clust_2="13000.00000"></scales>
<clustering>
<clus scale="  352.387">  1  3  2 -1</clus>
<clus scale="  352.387">  1  3  2 -1</clus>
</clustering>
</event>
<event>
 5   1  0.3464723E-02  0.3624957E+03  0.7816531E-02  0.1057600E+00
       21   -1    0    0  503  502  0.00000000000E+00  0.00000000000E+00  0.17218136842E+04  0.17218136842E+04  0.00000000000E+00 0. -1.
       21   -1    0    0  504  503  0.00000000000E+00  0.00000000000E+00 -0.91119343443E+02  0.91119343443E+02  0.00000000000E+00 0. -1.
  1000006    1    1    2  501    0 -0.46557249429E+02  0.84334452439E+02  0.64624004010E+03  0.74121931085E+03  0.35000000000E+03 0.  0.
 -1000006    1    1    2    0  502  0.10361618173E+02 -0.95512816917E+02  0.96076467033E+03  0.10270339883E+04  0.35000000000E+03 0.  0.
       21    1    1    2  504  501  0.36195631256E+02  0.11178364478E+02  0.23689630304E+02  0.44679728495E+02  0.00000000000E+00 0.  1.
<scales pt_clust_1="13000.00000" pt_clust_2="13000.00000" pt_clust_3="37.88244"></scales>
<clustering>
<clus scale="   37.882">  2  5  1 -1</clus>
<clus scale="  362.496">  2  3  1 -1</clus>
<clus scale="  362.496">  1  3  2 -1</clus>
</clustering>
</event>
<event>
 5   1  0.3464723E-02  0.3887319E+03  0.7816531E-02  0.1047753E+00
        2   -1    0    0  501    0  0.00000000000E+00  0.00000000000E+00  0.69606049153E+03  0.69606049153E+03  0.00000000000E+00 0.  1.
       21   -1    0    0  502  503  0.00000000000E+00  0.00000000000E+00 -0.67129225138E+03  0.67129225138E+03  0.00000000000E+00 0.  1.
  1000006    1    1    2  501    0  0.68173937716E+02 -0.22668534615E+02 -0.37366541049E+02  0.35924616440E+03  0.35000000000E+03 0.  0.
 -1000006    1    1    2    0  503 -0.21802010778E+03 -0.99327985289E+02 -0.35195354768E+03  0.55115344123E+03  0.35000000000E+03 0.  0.
        2    1    1    2  502    0  0.14984617006E+03  0.12199651990E+03  0.41408832888E+03  0.45695313728E+03  0.00000000000E+00 0.  1.
<scales pt_clust_1="13000.00000" pt_clust_2="13000.00000" pt_clust_3="193.22791"></scales>
<clustering>
<clus scale="  193.228">  1  5  2 -1</clus>
<clus scale="  388.732">  2  4  1 -1</clus>
<clus scale="  388.732">  2  3  1 -1</clus>
</clustering>
</event>
<event>
 6   2  0.3464723E-02  0.6550799E+03  0.7816531E-02  0.9797294E-01
       21   -1    0    0  501  503  0.00000000000E+00  0.00000000000E+00  0.53371907721E+03  0.53371907721E+03  0.00000000000E+00 0.  1.
        1   -1    0    0  504    0  0.00000000000E+00  0.00000000000E+00 -0.15275073950E+04  0.15275073950E+04  0.00000000000E+00 0. -1.
  1000006    1    1    2  501    0 -0.31740826993E+03  0.36126945223E+03 -0.26961078066E+03  0.65303414917E+03  0.35000000000E+03 0.  0.
 -1000006    1    1    2    0  502  0.21075403943E+03 -0.64399871178E+03 -0.37249532410E+03  0.84876638269E+03  0.35000000000E+03 0.  0.
       21    1    1    2  504  503 -0.30965820114E+02 -0.22307380746E+02  0.32361647954E+02  0.50037760835E+02  0.00000000000E+00 0. -1.
        1    1    1    2  502    0  0.13762005062E+03  0.30503664030E+03 -0.38404386096E+03  0.50938817948E+03  0.00000000000E+00 0. -1.
<scales pt_clust_1="13000.00000" pt_clust_2="13000.00000" pt_clust_3="38.16414" pt_clust_4="330.44506"></scales>
<clustering>
<clus scale="   38.164">  1  5  2 -1</clus>
<clus scale="  330.445">  2  6  1 -1</clus>
<clus scale="  655.080">  1  3  2 -1</clus>
<clus scale="  655.080">  1  3  2 -1</clus>
</clustering>
</event>
<event>
 4   0  0.3464723E-02  0.3747988E+03  0.7816531E-02  0.1052873E+00
       21   -1    0    0  501  502  0.00000000000E+00  0.00000000000E+00  0.14153053527E+03  0.14153053527E+03  0.00000000000E+00 0. -1.
       21   -1    0    0  502  503  0.00000000000E+00  0.00000000000E+00 -0.10150656826E+04  0.10150656826E+04  0.00000000000E+00 0. -1.
  1000006    1    1    2  501    0  0.26818140717E+02 -0.13135791867E+03 -0.35061174188E+03  0.51322773602E+03  0.35000000000E+03 0.  0.
 -1000006    1    1    2    0  503 -0.26818140717E+02  0.13135791867E+03 -0.52292340545E+03  0.64336848185E+03  0.35000000000E+03 0.  0.
<scales pt_clust_1="13000.00000" pt_clust_2="13000.00000"></scales>
<clustering>
<clus scale="  374.799">  1  3  2 -1</clus>
<clus scale="  374.799">  1  3  2 -1</clus>
</clustering>
</event>
<event>
 4   0  0.3464723E-02  0.3961978E+03  0.7816531E-02  0.1045104E+00
       21   -1    0    0  503  502  0.00000000000E+00  0.00000000000E+00  0.25822444465E+03  0.25822444465E+03  0.00000000000E+00 0. -1.
       21   -1    0    0  501  503  0.00000000000E+00  0.00000000000E+00 -0.60793120467E+03  0.60793120467E+03  0.00000000000E+00 0. -1.
  1000006    1    1    2  501    0  0.10564001691E+03 -0.15268563540E+03 -0.17830667149E+03  0.43447207681E+03  0.35000000000E+03 0.  0.
 -1000006    1    1    2    0  502 -0.10564001691E+03  0.15268563540E+03 -0.17140008852E+03  0.43168357251E+03  0.35000000000E+03 0.  0.
<scales pt_clust_1="13000.00000" pt_clust_2="13000.00000"></scales>
<clustering>
<clus scale="  396.198">  2  3  1 -1</clus>
<clus scale="  396.198">  1  3  2 -1</clus>
</clustering>
</event>
<event>
 4   0  0.3464723E-02  0.5609206E+03  0.7816531E-02  0.9989974E-01
       21   -1    0    0  501  502  0.00000000000E+00  0.00000000000E+00  0.61303521818E+03  0.61303521818E+03  0.00000000000E+00 0.  1.
       21   -1    0    0  502  503  0.00000000000E+00  0.00000000000E+00 -0.62622508718E+03  0.62622508718E+03  0.00000000000E+00 0.  1.
  1000006    1    1    2  501    0  0.37455652913E+03 -0.22768256670E+03  0.25660448735E+03  0.61682883170E+03  0.35000000000E+03 0.  0.
 -1000006    1    1    2    0  503 -0.37455652913E+03  0.22768256670E+03 -0.26979435635E+03  0.62243147366E+03  0.35000000000E+03 0.  0.
<scales pt_clust_1="13000.00000" pt_clust_2="13000.00000"></scales>
<clustering>
<clus scale="  560.921">  1  3  2 -1</clus>
<clus scale="  560.921">  1  3  2 -1</clus>
</clustering>
</event>
<event>
 6   2  0.3464723E-02  0.5470279E+03  0.7816531E-02  0.1015806E+00
       21   -1    0    0  503  502  0.00000000000E+00  0.00000000000E+00  0.21451404151E+04  0.21451404151E+04  0.00000000000E+00 0.  1.
       21   -1    0    0  501  503  0.00000000000E+00  0.00000000000E+00 -0.25766019845E+03  0.25766019845E+03  0.00000000000E+00 0.  1.
  1000006    1    1    2  501    0  0.33061132502E+02  0.71999990866E+02  0.41270776913E+03  0.54690468993E+03  0.35000000000E+03 0.  0.
 -1000006    1    1    2    0  505  0.20549393158E+03 -0.40705660719E+03  0.41019287330E+03  0.70617351315E+03  0.35000000000E+03 0.  0.
       21    1    1    2  504  502 -0.23593859405E+03  0.26561064323E+03  0.78525483977E+03  0.86188235702E+03  0.00000000000E+00 0.  1.
       21    1    1    2  505  504 -0.26164700345E+01  0.69445973088E+02  0.27932473445E+03  0.28784005345E+03  0.00000000000E+00 0.  1.
<scales pt_clust_1="13000.00000" pt_clust_2="13000.00000" pt_clust_3="442.83177" pt_clust_4="61.53995"></scales>
<clustering>
<clus scale="   61.540">  5  6 -1 -1</clus>
<clus scale="  358.855">  2  3  1 -1</clus>
<clus scale="  442.832">  1  5  2 -1</clus>
<clus scale="  547.028">  1  3  2 -1</clus>
</clustering>
</event>
<event>
 6   2  0.3464723E-02  0.3595040E+03  0.7816531E-02  0.1058780E+00
       21   -1    0    0  502  503  0.00000000000E+00  0.00000000000E+00  0.17899260129E+03  0.17899260129E+03  0.00000000000E+00 0.  1.
        1   -1    0    0  504    0  0.00000000000E+00  0.00000000000E+00 -0.14469471752E+04  0.14469471752E+04  0.00000000000E+00 0.  1.
  1000006    1    1    2  501    0 -0.72145089143E+02 -0.61878275017E+02 -0.68467165943E+03  0.77479617709E+03  0.35000000000E+03 0.  0.
 -1000006    1    1    2    0  503  0.29439468219E+02  0.74843429446E+02 -0.11951061474E+03  0.37848514932E+03  0.35000000000E+03 0.  0.
       21    1    1    2  504  501 -0.13456113604E+02 -0.29267452856E+02 -0.18982538958E+03  0.19253916307E+03  0.00000000000E+00 0.  1.
        1    1    1    2  502    0  0.56161734527E+02  0.16302298427E+02 -0.27394691015E+03  0.28011928698E+03  0.00000000000E+00 0.  1.
<scales pt_clust_1="13000.00000" pt_clust_2="13000.00000" pt_clust_3="32.21259" pt_clust_4="54.09669"></scales>
<clustering>
<clus scale="   32.213">  2  5  1 -1</clus>
<clus scale="   54.097">  2  6  1 -1</clus>
<clus scale="  359.504">  2  3  1 -1</clus>
<clus scale="  359.504">  1  3  2 -1</clus>
</clustering>
</event>
<event>
 5   1  0.3464723E-02  0.4150528E+03  0.7816531E-02  0.1038689E+00
       21   -1    0    0  501  502  0.00000000000E+00  0.00000000000E+00  0.28956683748E+03  0.28956683748E+03  0.00000000000E+00 0. -1.
       21   -1    0    0  504  503  0.00000000000E+00  0.00000000000E+00 -0.10307266103E+04  0.10307266103E+04  0.00000000000E+00 0. -1.
  1000006    1    1    2  501    0 -0.26122246298E+03 -0.57481252802E+02 -0.20653628444E+02  0.44098508133E+03  0.35000000000E+03 0.  0.
 -1000006    1    1    2    0  503  0.20915801833E+03  0.32481407950E+02 -0.71172871404E+03  0.82088968862E+03  0.35000000000E+03 0.  0.
       21    1    1    2  504  502  0.52064444650E+02  0.24999844853E+02 -0.87774303666E+01  0.58418677863E+02  0.00000000000E+00 0. -1.
<scales pt_clust_1="13000.00000" pt_clust_2="13000.00000" pt_clust_3="57.75551"></scales>
<clustering>
<clus scale="   57.756">  1  5  2 -1</clus>
<clus scale="  415.053">  1  3  2 -1</clus>
<clus scale="  415.053">  1  3  2 -1</clus>
</clustering>
</event>
<event>
 6   2  0.3464723E-02  0.3639743E+03  0.7816531E-02  0.1057021E+00
       21   -1    0    0  504  502  0.00000000000E+00  0.00000000000E+00  0.66769490628E+03  0.66769490628E+03  0.00000000000E+00 0. -1.
       21   -1    0    0  505  503  0.00000000000E+00  0.00000000000E+00 -0.70823939954E+03  0.70823939954E+03  0.00000000000E+00 0. -1.
  1000006    1    1    2  501    0 -0.26949355114E+02 -0.10121465094E+03  0.11108193052E+03  0.38185058412E+03  0.35000000000E+03 0.  0.
 -1000006    1    1    2    0  502 -0.47557777798E+02  0.95962168653E+02  0.33308836255E+03  0.49489224818E+03  0.35000000000E+03 0.  0.
       21    1    1    2  504  503  0.48189079139E+02 -0.35701052176E+02 -0.36603367769E+03  0.37091428347E+03  0.00000000000E+00 0. -1.
       21    1    1    2  505  501  0.26318053772E+02  0.40953534462E+02 -0.11868110864E+03  0.12827719005E+03  0.00000000000E+00 0. -1.
<scales pt_clust_1="13000.00000" pt_clust_2="13000.00000" pt_clust_3="65.52428" pt_clust_4="48.68092"></scales>
<clustering>
<clus scale="   48.681">  2  6  1 -1</clus>
<clus scale="   65.524">  2  5  1 -1</clus>
<clus scale="  363.974">  1  4  2 -1</clus>
<clus scale="  363.974">  1  3  2 -1</clus>
</clustering>
</event>
<event>
 6   2  0.3464723E-02  0.5405223E+03  0.7816531E-02  0.1003712E+00
       21   -1    0    0  504  502  0.00000000000E+00  0.00000000000E+00  0.13623002044E+04  0.13623002044E+04  0.00000000000E+00 0. -1.
       21   -1    0    0  502  503  0.00000000000E+00  0.00000000000E+00 -0.17275455811E+04  0.17275455811E+04  0.00000000000E+00 0. -1.
  1000006    1    1    2  501    0  0.27097542303E+03 -0.26552416757E+03  0.24903239287E+03  0.57310373943E+03  0.35000000000E+03 0.  0.
 -1000006    1    1    2    0  505 -0.41636784372E+03  0.17440850934E+03 -0.12812927547E+04  0.14028512511E+04  0.35000000000E+03 0.  0.
       21    1    1    2  504  501  0.11368108790E+03  0.10910427787E+03  0.88193529779E+03  0.89590010754E+03  0.00000000000E+00 0. -1.
       21    1    1    2  505  503  0.31711332785E+02 -0.17988619638E+02 -0.21492031255E+03  0.21799068744E+03  0.00000000000E+00 0.  1.
<scales pt_clust_1="13000.00000" pt_clust_2="13000.00000" pt_clust_3="157.61453" pt_clust_4="36.45818"></scales>
<clustering>
<clus scale="   36.458">  2  6  1 -1</clus>
<clus scale="  157.615">  1  5  2 -1</clus>
<clus scale="  540.522">  2  4  1 -1</clus>
<clus scale="  540.522">  1  3  2 -1</clus>
</clustering>
</event>
<event>
 6   2  0.3464723E-02  0.3851230E+03  0.7816531E-02  0.1049056E+00
       21   -1    0    0  502  503  0.00000000000E+00  0.00000000000E+00  0.27208045579E+04  0.27208045579E+04  0.00000000000E+00 0.  1.
        2   -1    0    0  504    0  0.00000000000E+00  0.00000000000E+00 -0.57852502082E+03  0.57852502082E+03  0.00000000000E+00 0.  1.
  1000006    1    1    2  501    0 -0.13669565738E+03  0.23716742156E+03  0.14055542173E+04  0.14741155811E+04  0.35000000000E+03 0.  0.
 -1000006    1    1    2    0  503  0.98463591731E+02 -0.30807160837E+01  0.10961562021E+04  0.11548865698E+04  0.35000000000E+03 0.  0.
       21    1    1    2  504  501  0.12270660117E+03 -0.20022317714E+03  0.58986063104E+02  0.24212721093E+03  0.00000000000E+00 0.  1.
        2    1    1    2  502    0 -0.84474535526E+02 -0.33863528340E+02 -0.41841694533E+03  0.42820021701E+03  0.00000000000E+00 0.  1.
<scales pt_clust_1="13000.00000" pt_clust_2="13000.00000" pt_clust_3="231.94533" pt_clust_4="91.00926"></scales>
<clustering>
<clus scale="   91.009">  2  6  1 -1</clus>
<clus scale="  231.945">  2  5  1 -1</clus>
<clus scale="  385.123">  1  4  2 -1</clus>
<clus scale="  385.123">  1  3  2 -1</clus>
</clustering>
</event>
<event>
 5   1  0.3464723E-02  0.3736933E+03  0.7816531E-02  0.1053290E+00
       21   -1    0    0  504  502  0.00000000000E+00  0.00000000000E+00  0.15420132990E+04  0.15420132990E+04  0.00000000000E+00 0.  1.
       21   -1    0    0  501  503  0.00000000000E+00  0.00000000000E+00 -0.17914074509E+03  0.17914074509E+03  0.00000000000E+00 0.  1.
  1000006    1    1    2  501    0  0.39104109501E+02 -0.11874948599E+03  0.18408097059E+03  0.41474856906E+03  0.35000000000E+03 0.  0.
 -1000006    1    1    2    0  502 -0.17628115511E+02  0.14272594897E+03  0.50094772720E+03  0.62779779576E+03  0.35000000000E+03 0.  0.
       21    1    1    2  504  503 -0.21475993990E+02 -0.23976462974E+02  0.67784385614E+03  0.67860767929E+03  0.00000000000E+00 0. -1.
<scales pt_clust_1="13000.00000" pt_clust_2="13000.00000" pt_clust_3="32.18834"></scales>
<clustering>
<clus scale="   32.188">  1  5  2 -1</clus>
<clus scale="  373.693">  1  4  2 -1</clus>
<clus scale="  373.693">  1  3  2 -1</clus>
</clustering>
</event>
<event>
 5   1  0.3464723E-02  0.4337952E+03  0.7816531E-02  0.1032668E+00
       21   -1    0    0  501  502  0.00000000000E+00  0.00000000000E+00  0.31026925690E+04  0.31026925690E+04  0.00000000000E+00 0.  1.
       21   -1    0    0  504  503  0.00000000000E+00  0.00000000000E+00 -0.70688785937E+02  0.70688785937E+02  0.00000000000E+00 0.  1.
  1000006    1    1    2  501    0  0.59581033990E+02 -0.28035114551E+03  0.15446298399E+04  0.16095117293E+04  0.35000000000E+03 0.  0.
 -1000006    1    1    2    0  503 -0.66229647791E+02  0.22284926192E+03  0.12208552350E+04  0.12911373531E+04  0.35000000000E+03 0.  0.
       21    1    1    2  504  502  0.66486138004E+01  0.57501883587E+02  0.26651870815E+03  0.27273227252E+03  0.00000000000E+00 0. -1.
<scales pt_clust_1="13000.00000" pt_clust_2="13000.00000" pt_clust_3="57.88498"></scales>
<clustering>
<clus scale="   57.885">  1  5  2 -1</clus>
<clus scale="  433.795">  1  3  2 -1</clus>
<clus scale="  433.795">  1  3  2 -1</clus>
</clustering>
</event>
<event>
 5   1  0.3464723E-02  0.3586448E+03  0.7816531E-02  0.1059122E+00
       21   -1    0    0  501  502  0.00000000000E+00  0.00000000000E+00  0.14388619731E+04  0.14388619731E+04  0.00000000000E+00 0.  1.
       21   -1    0    0  504  503  0.00000000000E+00  0.00000000000E+00 -0.77787556464E+03  0.77787556464E+03  0.00000000000E+00 0.  1.
  1000006    1    1    2  501    0  0.87483109385E+02  0.35420136964E+02  0.10689716850E+04  0.11287640780E+04  0.35000000000E+03 0.  0.
 -1000006    1    1    2    0  503 -0.32191750411E+02  0.21964031787E+03  0.17449596513E+03  0.44969658646E+03  0.35000000000E+03 0.  0.
       21    1    1    2  504  502 -0.55291358974E+02 -0.25506045483E+03 -0.58248124168E+03  0.63827687323E+03  0.00000000000E+00 0.  1.
<scales pt_clust_1="13000.00000" pt_clust_2="13000.00000" pt_clust_3="260.98462"></scales>
<clustering>
<clus scale="  260.985">  2  5  1 -1</clus>
<clus scale="  358.645">  2  4  1 -1</clus>
<clus scale="  358.645">  1  3  2 -1</clus>
</clustering>
</event>
<event>
 4   0  0.3464723E-02  0.3895908E+03  0.7816531E-02  0.1047445E+00
       21   -1    0    0  503  502  0.00000000000E+00  0.00000000000E+00  0.14426005400E+03  0.14426005400E+03  0.00000000000E+00 0.  1.
       21   -1    0    0  501  503  0.00000000000E+00  0.00000000000E+00 -0.10732280882E+04  0.10732280882E+04  0.00000000000E+00 0.  1.
  1000006    1    1    2  501    0  0.43723283363E+01  0.17106098305E+03 -0.54982627867E+03  0.67386193979E+03  0.35000000000E+03 0.  0.
 -1000006    1    1    2    0  502 -0.43723283363E+01 -0.17106098305E+03 -0.37914175558E+03  0.54362620246E+03  0.35000000000E+03 0.  0.
<scales pt_clust_1="13000.00000" pt_clust_2="13000.00000"></scales>
<clustering>
<clus scale="  389.591">  2  3  1 -1</clus>
<clus scale="  389.591">  1  3  2 -1</clus>
</clustering>
</event>
<event>
 4   0  0.3464723E-02  0.5084584E+03  0.7816531E-02  0.1011594E+00
       -1   -1    0    0    0  501  0.00000000000E+00  0.00000000000E+00  0.36826816819E+03  0.36826816819E+03  0.00000000000E+00 0.  1.
        1   -1    0    0  502    0  0.00000000000E+00  0.00000000000E+00 -0.85659021016E+03  0.85659021016E+03  0.00000000000E+00 0. -1.
  1000006    1    1    2  502    0  0.15623887547E+03  0.33409485991E+03  0.15997797132E+02  0.50871002658E+03  0.35000000000E+03 0.  0.
 -1000006    1    1    2    0  501 -0.15623887547E+03 -0.33409485991E+03 -0.50431983910E+03  0.71614835177E+03  0.35000000000E+03 0.  0.
<scales pt_clust_1="13000.00000" pt_clust_2="13000.00000"></scales>
<clustering>
<clus scale="  945.685">  3  4 -1 -1</clus>
<clus scale="  508.458">  2  3  1 -1</clus>
</clustering>
</event>
<event>
 6   2  0.3464723E-02  0.3963513E+03  0.7816531E-02  0.1045050E+00
       21   -1    0    0  505  502  0.00000000000E+00  0.00000000000E+00  0.18462378200E+03  0.18462378200E+03  0.00000000000E+00 0.  1.
       21   -1    0    0  504  503  0.00000000000E+00  0.00000000000E+00 -0.11768951130E+04  0.11768951130E+04  0.00000000000E+00 0.  1.
  1000006    1    1    2  501    0  0.17492533543E+03 -0.55696930344E+02 -0.58994657338E+03  0.71009716269E+03  0.35000000000E+03 0.  0.
 -1000006    1    1    2    0  502 -0.15473566349E+03  0.72597930601E+02 -0.23236110901E+03  0.45354742868E+03  0.35000000000E+03 0.  0.
       21    1    1    2  504  501  0.15519407281E+02 -0.34604461234E+02 -0.14713222055E+03  0.15194147250E+03  0.00000000000E+00 0.  1.
       21    1    1    2  505  503 -0.35709079220E+02  0.17703460977E+02 -0.22831428095E+02  0.45932831158E+02  0.00000000000E+00 0. -1.
<scales pt_clust_1="13000.00000" pt_clust_2="13000.00000" pt_clust_3="37.92520" pt_clust_4="38.88527"></scales>
<clustering>
<clus scale="   37.925">  2  5  1 -1</clus>
<clus scale="   38.885">  1  6  2 -1</clus>
<clus scale="  396.351">  2  3  1 -1</clus>
<clus scale="  396.351">  1  3  2 -1</clus>
</clustering>
</event>
<event>
 5   1  0.3464723E-02  0.3833852E+03  0.7816531E-02  0.1049690E+00
        2   -1    0    0  503    0  0.00000000000E+00  0.00000000000E+00  0.43625900390E+03  0.43625900390E+03  0.00000000000E+00 0.  1.
       21   -1    0    0  501  503  0.00000000000E+00  0.00000000000E+00 -0.46497402810E+03  0.46497402810E+03  0.00000000000E+00 0.  1.
  1000006    1    1    2  501    0  0.13867594888E+03  0.13303712485E+02 -0.89741958142E+02  0.38724879163E+03  0.35000000000E+03 0.  0.
 -1000006    1    1    2    0  502 -0.17759399519E+03  0.87627896605E+02  0.45756829293E+02  0.40473690568E+03  0.35000000000E+03 0.  0.
        2    1    1    2  502    0  0.38918046309E+02 -0.10093160909E+03  0.15270104653E+02  0.10924733470E+03  0.00000000000E+00 0.  1.
<scales pt_clust_1="13000.00000" pt_clust_2="13000.00000" pt_clust_3="108.17488"></scales>
<clustering>
<clus scale="  108.175">  1  5  2 -1</clus>
<clus scale="  383.385">  2  3  1 -1</clus>
<clus scale="  383.385">  2  3  1 -1</clus>
</clustering>
</event>
<event>
 6   2  0.3464723E-02  0.5008654E+03  0.7816531E-02  0.1013553E+00
       21   -1    0    0  505  502  0.00000000000E+00  0.00000000000E+00  0.34481472119E+03  0.34481472119E+03  0.00000000000E+00 0. -1.
       21   -1    0    0  501  503  0.00000000000E+00  0.00000000000E+00 -0.15670248175E+04  0.15670248175E+04  0.00000000000E+00 0.  1.
  1000006    1    1    2  501    0 -0.37483913085E+03 -0.89593537845E+02 -0.11169294279E+04  0.12322997699E+04  0.35000000000E+03 0.  0.
 -1000006    1    1    2    0  504  0.26609446441E+03  0.87268473503E+02 -0.13080499748E+03  0.46693896584E+03  0.35000000000E+03 0.  0.
       21    1    1    2  504  502  0.23688694604E+02  0.27859803494E+02  0.93738959288E+02  0.10061965708E+03  0.00000000000E+00 0. -1.
       21    1    1    2  505  503  0.85055971838E+02 -0.25534739153E+02 -0.68214630220E+02  0.11198114585E+03  0.00000000000E+00 0.  1.
<scales pt_clust_1="13000.00000" pt_clust_2="13000.00000" pt_clust_3="36.56943" pt_clust_4="90.15186"></scales>
<clustering>
<clus scale="   36.569">  1  5  2 -1</clus>
<clus scale="   90.152">  1  6  2 -1</clus>
<clus scale="  500.865">  2  3  1 -1</clus>
<clus scale="  500.865">  1  3  2 -1</clus>
</clustering>
</event>
<event>
 5   1  0.3464723E-02  0.4097139E+03  0.7816531E-02  0.1040467E+00
       21   -1    0    0  501  502  0.00000000000E+00  0.00000000000E+00  0.29740383772E+03  0.29740383772E+03  0.00000000000E+00 0.  1.
       21   -1    0    0  502  503  0.00000000000E+00  0.00000000000E+00 -0.76202720543E+03  0.76202720543E+03  0.00000000000E+00 0. -1.
  1000006    1    1    2  501    0  0.93243711088E+02 -0.22055378626E+03 -0.18764169206E+03  0.46373243028E+03  0.35000000000E+03 0.  0.
 -1000006    1    1    2    0  504  0.28198351867E+02  0.20011042271E+03 -0.20775654674E+03  0.45442503346E+03  0.35000000000E+03 0.  0.
       21    1    1    2  504  503 -0.12144206295E+03  0.20443363554E+02 -0.69225128904E+02  0.14127357941E+03  0.00000000000E+00 0. -1.
<scales pt_clust_1="13000.00000" pt_clust_2="13000.00000" pt_clust_3="123.15074"></scales>
<clustering>
<clus scale="  123.151">  2  5  1 -1</clus>
<clus scale="  409.714">  1  3  2 -1</clus>
<clus scale="  409.714">  1  3  2 -1</clus>
</clustering>
</event>
<event>
 5   1  0.3464723E-02  0.4255558E+03  0.7816531E-02  0.1035273E+00
       21   -1    0    0  504  502  0.00000000000E+00  0.00000000000E+00  0.68986847066E+03  0.68986847066E+03  0.00000000000E+00 0. -1.
       21   -1    0    0  501  503  0.00000000000E+00  0.00000000000E+00 -0.39939908726E+03  0.39939908726E+03  0.00000000000E+00 0. -1.
  1000006    1    1    2  501    0  0.97410638081E+02 -0.22475760522E+03  0.24731224646E+02  0.42792107565E+03  0.35000000000E+03 0.  0.
 -1000006    1    1    2    0  502 -0.13931482230E+03  0.19751461474E+03  0.36711018545E+02  0.42692896556E+03  0.35000000000E+03 0.  0.
       21    1    1    2  504  503  0.41904184221E+02  0.27242990480E+02  0.22902714021E+03  0.23441751671E+03  0.00000000000E+00 0. -1.
<scales pt_clust_1="13000.00000" pt_clust_2="13000.00000" pt_clust_3="49.98141"></scales>
<clustering>
<clus scale="   49.981">  1  5  2 -1</clus>
<clus scale="  425.556">  2  3  1 -1</clus>
<clus scale="  425.556">  1  3  2 -1</clus>
</clustering>
</event>
<event>
 6   2  0.3464723E-02  0.4792050E+03  0.7816531E-02  0.1019354E+00
       21   -1    0    0  504  502  0.00000000000E+00  0.00000000000E+00  0.17533841752E+04  0.17533841752E+04  0.00000000000E+00 0. -1.
       21   -1    0    0  505  503  0.00000000000E+00  0.00000000000E+00 -0.26861163538E+03  0.26861163538E+03  0.00000000000E+00 0.  1.
  1000006    1    1    2  501    0 -0.17609705270E+03  0.23257439236E+03  0.58536818657E+03  0.74179305321E+03  0.35000000000E+03 0.  0.
 -1000006    1    1    2    0  502  0.20595715379E+03 -0.28781458373E+03  0.10035991973E+04  0.11202530663E+04  0.35000000000E+03 0.  0.
       21    1    1    2  504  503 -0.45194102453E+02 -0.55975917498E+01 -0.97611506049E+01  0.46573812288E+02  0.00000000000E+00 0.  1.
       21    1    1    2  505  501  0.15334001373E+02  0.60837783123E+02 -0.94433693374E+02  0.11337587882E+03  0.00000000000E+00 0.  1.
<scales pt_clust_1="13000.00000" pt_clust_2="13000.00000" pt_clust_3="45.53943" pt_clust_4="58.56936"></scales>
<clustering>
<clus scale="   45.539">  2  5  1 -1</clus>
<clus scale="   58.569">  2  6  1 -1</clus>
<clus scale="  479.205">  2  3  1 -1</clus>
<clus scale="  479.205">  1  3  2 -1</clus>
</clustering>
</event>
<event>
 6   2  0.3464723E-02  0.3512530E+03  0.7816531E-02  0.1062102E+00
        2   -1    0    0  501    0  0.00000000000E+00  0.00000000000E+00  0.92243861386E+03  0.92243861386E+03  0.00000000000E+00 0. -1.
       21   -1    0    0  504  503  0.00000000000E+00  0.00000000000E+00 -0.53117881946E+03  0.53117881946E+03  0.00000000000E+00 0. -1.
  1000006    1    1    2  501    0 -0.31783085050E+02 -0.40571493523E+02  0.52928105155E+02  0.35771160856E+03  0.35000000000E+03 0.  0.
 -1000006    1    1    2    0  503 -0.15872948629E+02 -0.63577304802E+02 -0.22016457186E+03  0.41864837619E+03  0.35000000000E+03 0.  0.
       21    1    1    2  504  502  0.17378363487E+02  0.19298304079E+03  0.11798379201E+03  0.22685818638E+03  0.00000000000E+00 0. -1.
        2    1    1    2  502    0  0.30277670191E+02 -0.88834242467E+02  0.44051246910E+03  0.45039926219E+03  0.00000000000E+00 0. -1.
<scales pt_clust_1="13000.00000" pt_clust_2="13000.00000" pt_clust_3="163.34529" pt_clust_4="93.85233"></scales>
<clustering>
<clus scale="   93.852">  1  6  2 -1</clus>
<clus scale="  163.345">  1  5  2 -1</clus>
<clus scale="  351.253">  2  4  1 -1</clus>
<clus scale="  351.253">  2  3  1 -1</clus>
</clustering>
</event>
<event>
 5   1  0.3464723E-02  0.3842098E+03  0.7816531E-02  0.1049389E+00
       21   -1    0    0  503  502  0.00000000000E+00  0.00000000000E+00  0.30274981497E+03  0.30274981497E+03  0.00000000000E+00 0. -1.
       21   -1    0    0  501  503  0.00000000000E+00  0.00000000000E+00 -0.62686371713E+03  0.62686371713E+03  0.00000000000E+00 0. -1.
  1000006    1    1    2  501    0  0.83259263115E+02  0.12195419538E+03 -0.29392725233E+03  0.48031048326E+03  0.35000000000E+03 0.  0.
 -1000006    1    1    2    0  504 -0.11664562386E+03 -0.13504443573E+03 -0.66287175174E+02  0.39841836150E+03  0.35000000000E+03 0.  0.
       21    1    1    2  504  502  0.33386360745E+02  0.13090240355E+02  0.36100525346E+02  0.50884687350E+02  0.00000000000E+00 0. -1.
<scales pt_clust_1="13000.00000" pt_clust_2="13000.00000" pt_clust_3="35.86089"></scales>
<clustering>
<clus scale="   35.861">  1  5  2 -1</clus>
<clus scale="  384.210">  2  3  1 -1</clus>
<clus scale="  384.210">  1  3  2 -1</clus>
</clustering>
</event>
<event>
 4   0  0.3464723E-02  0.3509575E+03  0.7816531E-02  0.1062223E+00
       21   -1    0    0  503  502  0.00000000000E+00  0.00000000000E+00  0.23990871418E+03  0.23990871418E+03  0.00000000000E+00 0. -1.
       21   -1    0    0  501  503  0.00000000000E+00  0.00000000000E+00 -0.52061028974E+03  0.52061028974E+03  0.00000000000E+00 0. -1.
  1000006    1    1    2  501    0  0.52601294132E+01 -0.25367548227E+02 -0.18507501727E+03  0.39676686288E+03  0.35000000000E+03 0.  0.
 -1000006    1    1    2    0  502 -0.52601294132E+01  0.25367548227E+02 -0.95626558290E+02  0.36375214105E+03  0.35000000000E+03 0.  0.
<scales pt_clust_1="13000.00000" pt_clust_2="13000.00000"></scales>
<clustering>
<clus scale="  350.958">  2  3  1 -1</clus>
<clus scale="  350.958">  1  3  2 -1</clus>
</clustering>
</event>
<event>
 6   2  0.3464723E-02  0.3665605E+03  0.7816531E-02  0.1056016E+00
       21   -1    0    0  504  502  0.00000000000E+00  0.00000000000E+00  0.11722540833E+03  0.11722540833E+03  0.00000000000E+00 0. -1.
       21   -1    0    0  505  503  0.00000000000E+00  0.00000000000E+00 -0.23771216548E+04  0.23771216548E+04  0.00000000000E+00 0. -1.
  1000006    1    1    2  501    0 -0.87632147834E+02  0.12459662380E+02 -0.81505557288E+03  0.89143155845E+03  0.35000000000E+03 0.  0.
 -1000006    1    1    2    0  502  0.11588406631E+03 -0.30872722969E+02 -0.37319465643E+03  0.52550594044E+03  0.35000000000E+03 0.  0.
       21    1    1    2  504  503 -0.64216053933E+02  0.28776390635E+02 -0.56146306015E+03  0.56585559125E+03  0.00000000000E+00 0. -1.
       21    1    1    2  505  501  0.35964135459E+02 -0.10363330046E+02 -0.51018295702E+03  0.51155397300E+03  0.00000000000E+00 0. -1.
<scales pt_clust_1="13000.00000" pt_clust_2="13000.00000" pt_clust_3="59.19777" pt_clust_4="37.42750"></scales>
<clustering>
<clus scale="   37.427">  2  6  1 -1</clus>
<clus scale="   59.198">  2  5  1 -1</clus>
<clus scale="  366.560">  1  4  2 -1</clus>
<clus scale="  366.560">  1  3  2 -1</clus>
</clustering>
</event>
<event>
 5   1  0.3464723E-02  0.6030259E+03  0.7816531E-02  0.9899148E-01
       21   -1    0    0  501  502  0.00000000000E+00  0.00000000000E+00  0.79359352903E+03  0.79359352903E+03  0.00000000000E+00 0.  1.
       21   -1    0    0  504  503  0.00000000000E+00  0.00000000000E+00 -0.57065743913E+03  0.57065743913E+03  0.00000000000E+00 0. -1.
  1000006    1    1    2  501    0 -0.46149791670E+03 -0.16581809544E+03  0.28257484975E+03  0.66545060944E+03  0.35000000000E+03 0.  0.
 -1000006    1    1    2    0  503  0.48043642845E+03  0.10909656368E+03 -0.11743021876E+03  0.61563875631E+03  0.35000000000E+03 0.  0.
       21    1    1    2  504  502 -0.18938511757E+02  0.56721531755E+02  0.57791458914E+02  0.83161602412E+02  0.00000000000E+00 0.  1.
<scales pt_clust_1="13000.00000" pt_clust_2="13000.00000" pt_clust_3="59.79966"></scales>
<clustering>
<clus scale="   59.800">  1  5  2 -1</clus>
<clus scale="  603.026">  1  3  2 -1</clus>
<clus scale="  603.026">  1  3  2 -1</clus>
</clustering>
</event>
<event>
 5   1  0.3464723E-02  0.4098068E+03  0.7816531E-02  0.1040436E+00
       21   -1    0    0  501  502  0.00000000000E+00  0.00000000000E+00  0.67158776456E+03  0.67158776456E+03  0.00000000000E+00 0. -1.
       21   -1    0    0  502  503  0.00000000000E+00  0.00000000000E+00 -0.12953251450E+04  0.12953251450E+04  0.00000000000E+00 0. -1.
  1000006    1    1    2  501    0  0.16209746390E+03  0.15311962214E+03  0.27282402378E+03  0.49664288421E+03  0.35000000000E+03 0.  0.
 -1000006    1    1    2    0  504 -0.22555447375E+03 -0.24441307738E+02  0.12754286394E+03  0.43616439595E+03  0.35000000000E+03 0.  0.
       21    1    1    2  504  503  0.63457009850E+02 -0.12867831440E+03 -0.10241042682E+04  0.10341056294E+04  0.00000000000E+00 0. -1.
<scales pt_clust_1="13000.00000" pt_clust_2="13000.00000" pt_clust_3="143.47439"></scales>
<clustering>
<clus scale="  143.474">  2  5  1 -1</clus>
<clus scale="  409.807">  2  4  1 -1</clus>
<clus scale="  409.807">  1  3  2 -1</clus>
</clustering>
</event>
<event>
 6   2  0.3464723E-02  0.4142909E+03  0.7816531E-02  0.1038941E+00
       21   -1    0    0  501  502  0.00000000000E+00  0.00000000000E+00  0.29889921521E+03  0.29889921521E+03  0.00000000000E+00 0. -1.
       21   -1    0    0  505  503  0.00000000000E+00  0.00000000000E+00 -0.12430811224E+04  0.12430811224E+04  0.00000000000E+00 0.  1.
  1000006    1    1    2  501    0 -0.25479381600E+02 -0.24863327544E+03  0.54320780270E+01  0.43011302237E+03  0.35000000000E+03 0.  0.
 -1000006    1    1    2    0  503 -0.81138304416E+01  0.21747487808E+03 -0.74066064133E+03  0.84760801227E+03  0.35000000000E+03 0.  0.
       21    1    1    2  504  502  0.68676244880E+02  0.36600311852E+02 -0.32608338370E+02  0.84376022481E+02  0.00000000000E+00 0. -1.
       21    1    1    2  505  504 -0.35083032838E+02 -0.54419144938E+01 -0.17634500552E+03  0.17988328048E+03  0.00000000000E+00 0. -1.
<scales pt_clust_1="13000.00000" pt_clust_2="13000.00000" pt_clust_3="75.98203" pt_clust_4="35.50259"></scales>
<clustering>
<clus scale="   35.503">  2  6  1 -1</clus>
<clus scale="   75.982">  1  5  2 -1</clus>
<clus scale="  414.291">  1  3  2 -1</clus>
<clus scale="  414.291">  1  3  2 -1</clus>
</clustering>
</event>
<event>
 6   2  0.3464723E-02  0.3936606E+03  0.7816531E-02  0.1045997E+00
       21   -1    0    0  504  503  0.00000000000E+00  0.00000000000E+00  0.18980443519E+04  0.18980443519E+04  0.00000000000E+00 0. -1.
        2   -1    0    0  501    0  0.00000000000E+00  0.00000000000E+00 -0.25820644010E+04  0.25820644010E+04  0.00000000000E+00 0.  1.
  1000006    1    1    2  501    0  0.26505759242E+03 -0.13454350574E+03  0.44840120765E+03  0.64181081734E+03  0.35000000000E+03 0.  0.
 -1000006    1    1    2    0  503 -0.10200558390E+03  0.64431193623E+02  0.12566826576E+04  0.13100793181E+04  0.35000000000E+03 0.  0.
       21    1    1    2  504  502 -0.12306424098E+02  0.41072503600E+02  0.60310346165E+02  0.73998219442E+02  0.00000000000E+00 0. -1.
        2    1    1    2  502    0 -0.15074558443E+03  0.29039808518E+02 -0.24494142606E+04  0.24542203979E+04  0.00000000000E+00 0.  1.
<scales pt_clust_1="13000.00000" pt_clust_2="13000.00000" pt_clust_3="42.87655" pt_clust_4="153.54330"></scales>
<clustering>
<clus scale="   42.877">  1  5  2 -1</clus>
<clus scale="  153.543">  2  6  1 -1</clus>
<clus scale="  393.661">  2  3  1 -1</clus>
<clus scale="  393.661">  1  3  2 -1</clus>
</clustering>
</event>
<event>
 6   2  0.3464723E-02  0.3733310E+03  0.7816531E-02  0.1053427E+00
       21   -1    0    0  504  503  0.00000000000E+00  0.00000000000E+00  0.13628922555E+04  0.13628922555E+04  0.00000000000E+00 0.  1.
        2   -1    0    0  501    0  0.00000000000E+00  0.00000000000E+00 -0.63667955107E+03  0.63667955107E+03  0.00000000000E+00 0. -1.
  1000006    1    1    2  501    0  0.13168857293E+03 -0.65566841975E+02  0.37650789533E+03  0.53469532096E+03  0.35000000000E+03 0.  0.
 -1000006    1    1    2    0  503 -0.11965195040E+03  0.40359476695E+02  0.58728395078E+03  0.69523227445E+03  0.35000000000E+03 0.  0.
       21    1    1    2  504  502  0.57174506881E+02  0.61789250101E+02  0.25621120729E+03  0.26968688957E+03  0.00000000000E+00 0.  1.
        2    1    1    2  502    0 -0.69211129416E+02 -0.36581884821E+02 -0.49379034894E+03  0.49995732162E+03  0.00000000000E+00 0. -1.
<scales pt_clust_1="13000.00000" pt_clust_2="13000.00000" pt_clust_3="80.63359" pt_clust_4="78.28419"></scales>
<clustering>
<clus scale="   78.284">  2  6  1 -1</clus>
<clus scale="   80.634">  1  5  2 -1</clus>
<clus scale="  373.331">  1  4  2 -1</clus>
<clus scale="  373.331">  1  3  2 -1</clus>
</clustering>
</event>
<event>
 4   0  0.3464723E-02  0.3816091E+03  0.7816531E-02  0.1050341E+00
       21   -1    0    0  501  502  0.00000000000E+00  0.00000000000E+00  0.35941417637E+03  0.35941417637E+03  0.00000000000E+00 0. -1.
       21   -1    0    0  502  503  0.00000000000E+00  0.00000000000E+00 -0.41441639510E+03  0.41441639510E+03  0.00000000000E+00 0. -1.
  1000006    1    1    2  501    0 -0.56228950966E+02  0.14129339372E+03  0.30278432591E+02  0.38280843971E+03  0.35000000000E+03 0.  0.
 -1000006    1    1    2    0  503  0.56228950966E+02 -0.14129339372E+03 -0.85280651323E+02  0.39102213176E+03  0.35000000000E+03 0.  0.
<scales pt_clust_1="13000.00000" pt_clust_2="13000.00000"></scales>
<clustering>
<clus scale="  381.609">  1  3  2 -1</clus>
<clus scale="  381.609">  1  3  2 -1</clus>
</clustering>
</event>
<event>
 4   0  0.3464723E-02  0.4585145E+03  0.7816531E-02  0.1025213E+00
       21   -1    0    0  501  502  0.00000000000E+00  0.00000000000E+00  0.43439302936E+03  0.43439302936E+03  0.00000000000E+00 0. -1.
       21   -1    0    0  502  503  0.00000000000E+00  0.00000000000E+00 -0.48989440684E+03  0.48989440684E+03  0.00000000000E+00 0. -1.
  1000006    1    1    2  501    0  0.29618358015E+03 -0.32872244135E+01  0.23047943640E+02  0.45909337471E+03  0.35000000000E+03 0.  0.
 -1000006    1    1    2    0  503 -0.29618358015E+03  0.32872244135E+01 -0.78549321122E+02  0.46519406149E+03  0.35000000000E+03 0.  0.
<scales pt_clust_1="13000.00000" pt_clust_2="13000.00000"></scales>
<clustering>
<clus scale="  458.514">  1  3  2 -1</clus>
<clus scale="  458.514">  1  3  2 -1</clus>
</clustering>
</event>
<event>
 5   1  0.3464723E-02  0.4347282E+03  0.7816531E-02  0.1032377E+00
       21   -1    0    0  501  502  0.00000000000E+00  0.00000000000E+00  0.11206290503E+04  0.11206290503E+04  0.00000000000E+00 0. -1.
       21   -1    0    0  504  503  0.00000000000E+00  0.00000000000E+00 -0.49522214104E+03  0.49522214104E+03  0.00000000000E+00 0.  1.
  1000006    1    1    2  501    0 -0.27252774953E+02  0.26253656474E+03  0.26352611950E+02  0.43916127075E+03  0.35000000000E+03 0.  0.
 -1000006    1    1    2    0  503 -0.20936888539E+02 -0.25457119173E+03 -0.12501928064E+03  0.45097080337E+03  0.35000000000E+03 0.  0.
       21    1    1    2  504  502  0.48189663492E+02 -0.79653730145E+01  0.72407357791E+03  0.72571911719E+03  0.00000000000E+00 0. -1.
<scales pt_clust_1="13000.00000" pt_clust_2="13000.00000" pt_clust_3="48.84353"></scales>
<clustering>
<clus scale="   48.844">  1  5  2 -1</clus>
<clus scale="  434.728">  1  3  2 -1</clus>
<clus scale="  434.728">  1  3  2 -1</clus>
</clustering>
</event>
<event>
 5   1  0.3464723E-02  0.4233184E+03  0.7816531E-02  0.1035992E+00
        2   -1    0    0  503    0  0.00000000000E+00  0.00000000000E+00  0.29822027405E+03  0.29822027405E+03  0.00000000000E+00 0. -1.
       21   -1    0    0  501  503  0.00000000000E+00  0.00000000000E+00 -0.11518615709E+04  0.11518615709E+04  0.00000000000E+00 0. -1.
  1000006    1    1    2  501    0 -0.20432169537E+03  0.17798950797E+03 -0.55129672268E+03  0.70700473590E+03  0.35000000000E+03 0.  0.
 -1000006    1    1    2    0  502  0.21252361648E+03 -0.46061019214E+02 -0.40343459262E+03  0.57666920810E+03  0.35000000000E+03 0.  0.
        2    1    1    2  502    0 -0.82019211112E+01 -0.13192848876E+03  0.10109001847E+03  0.16640790093E+03  0.00000000000E+00 0. -1.
<scales pt_clust_1="13000.00000" pt_clust_2="13000.00000" pt_clust_3="132.18320"></scales>
<clustering>
<clus scale="  132.183">  1  5  2 -1</clus>
<clus scale="  423.318">  2  3  1 -1</clus>
<clus scale="  423.318">  2  3  1 -1</clus>
</clustering>
</event>
<event>
 5   1  0.3464723E-02  0.4306208E+03  0.7816531E-02  0.1033664E+00
       21   -1    0    0  504  502  0.00000000000E+00  0.00000000000E+00  0.53002752760E+03  0.53002752760E+03  0.00000000000E+00 0. -1.
       21   -1    0    0  502  503  0.00000000000E+00  0.00000000000E+00 -0.37896754294E+03  0.37896754294E+03  0.00000000000E+00 0. -1.
  1000006    1    1    2  501    0  0.10662196267E+03 -0.24375748011E+03  0.79338808055E+02  0.44674444428E+03  0.35000000000E+03 0.  0.
 -1000006    1    1    2    0  503 -0.10819314437E+03  0.21097118358E+03  0.58130887142E+02  0.42672449757E+03  0.35000000000E+03 0.  0.
       21    1    1    2  504  501  0.15711817023E+01  0.32786296526E+02  0.13590289458E+02  0.35526128686E+02  0.00000000000E+00 0. -1.
<scales pt_clust_1="13000.00000" pt_clust_2="13000.00000" pt_clust_3="32.82392"></scales>
<clustering>
<clus scale="   32.824">  1  5  2 -1</clus>
<clus scale="  430.621">  1  3  2 -1</clus>
<clus scale="  430.621">  1  3  2 -1</clus>
</clustering>
</event>
<event>
 6   2  0.3464723E-02  0.3786446E+03  0.7816531E-02  0.1051436E+00
       21   -1    0    0  504  503  0.00000000000E+00  0.00000000000E+00  0.10764034118E+04  0.10764034118E+04  0.00000000000E+00 0.  1.
       -3   -1    0    0    0  501  0.00000000000E+00  0.00000000000E+00 -0.53858191283E+03  0.53858191283E+03  0.00000000000E+00 0.  1.
  1000006    1    1    2  502    0  0.16792215316E+03  0.96573199393E+02  0.11346175466E+03  0.41580981486E+03  0.35000000000E+03 0.  0.
 -1000006    1    1    2    0  503 -0.12743293029E+03 -0.12578595716E+02  0.38652236307E+03  0.53693287285E+03  0.35000000000E+03 0.  0.
       21    1    1    2  504  501  0.16555648436E+02 -0.29216935160E+02  0.34420118712E+03  0.34583547535E+03  0.00000000000E+00 0.  1.
       -3    1    1    2    0  502 -0.57044871307E+02 -0.54777668517E+02 -0.30636380590E+03  0.31640716155E+03  0.00000000000E+00 0.  1.
<scales pt_clust_1="13000.00000" pt_clust_2="13000.00000" pt_clust_3="33.58152" pt_clust_4="79.14399"></scales>
<clustering>
<clus scale="   33.582">  1  5  2 -1</clus>
<clus scale="   79.144">  2  6  1 -1</clus>
<clus scale="  378.645">  1  4  2 -1</clus>
<clus scale="  378.645">  1  3  2 -1</clus>
</clustering>
</event>
<event>
 4   0  0.3464723E-02  0.3517623E+03  0.7816531E-02  0.1061894E+00
       21   -1    0    0  503  502  0.00000000000E+00  0.00000000000E+00  0.15682622940E+03  0.15682622940E+03  0.00000000000E+00 0.  1.
       21   -1    0    0  501  503  0.00000000000E+00  0.00000000000E+00 -0.10701786114E+04  0.10701786114E+04  0.00000000000E+00 0.  1.
  1000006    1    1    2  501    0 -0.13421409871E+02  0.32504640134E+02 -0.77114341961E+03  0.84758413121E+03  0.35000000000E+03 0.  0.
 -1000006    1    1    2    0  502  0.13421409871E+02 -0.32504640134E+02 -0.14220896239E+03  0.37942070958E+03  0.35000000000E+03 0.  0.
<scales pt_clust_1="13000.00000" pt_clust_2="13000.00000"></scales>
<clustering>
<clus scale="  351.762">  2  3  1 -1</clus>
<clus scale="  351.762">  1  3  2 -1</clus>
</clustering>
</event>
<event>
 5   1  0.3464723E-02  0.3686270E+03  0.7816531E-02  0.1055219E+00
       21   -1    0    0  502  503  0.00000000000E+00  0.00000000000E+00  0.78120701778E+03  0.78120701778E+03  0.00000000000E+00 0. -1.
        3   -1    0    0  501    0  0.00000000000E+00  0.00000000000E+00 -0.19929705943E+03  0.19929705943E+03  0.00000000000E+00 0. -1.
  1000006    1    1    2  501    0  0.43388587609E+02  0.10131990925E+03  0.26647482595E+03  0.45349435102E+03  0.35000000000E+03 0.  0.
 -1000006    1    1    2    0  503 -0.81705527569E+02 -0.92637485186E+02  0.31639109772E+03  0.48770977395E+03  0.35000000000E+03 0.  0.
        3    1    1    2  502    0  0.38316939960E+02 -0.86824240680E+01 -0.95596531475E+00  0.39299952230E+02  0.00000000000E+00 0. -1.
<scales pt_clust_1="13000.00000" pt_clust_2="13000.00000" pt_clust_3="39.28832"></scales>
<clustering>
<clus scale="   39.288">  2  5  1 -1</clus>
<clus scale="  368.627">  2  3  1 -1</clus>
<clus scale="  368.627">  1  3  2 -1</clus>
</clustering>
</event>
<event>
 6   2  0.3464723E-02  0.3512342E+03  0.7816531E-02  0.1062110E+00
       21   -1    0    0  503  502  0.00000000000E+00  0.00000000000E+00  0.30470902649E+03  0.30470902649E+03  0.00000000000E+00 0.  1.
       21   -1    0    0  504  503  0.00000000000E+00  0.00000000000E+00 -0.10467386884E+04  0.10467386884E+04  0.00000000000E+00 0.  1.
  1000006    1    1    2  501    0  0.10333286672E+02  0.65806037439E+02 -0.30086025305E+03  0.46631974357E+03  0.35000000000E+03 0.  0.
 -1000006    1    1    2    0  505 -0.19774743975E+02  0.12668639388E+02 -0.23144127832E+03  0.42025777832E+03  0.35000000000E+03 0.  0.
       21    1    1    2  504  501 -0.64416687310E+02 -0.22716644989E+02 -0.31637809544E+03  0.32366750661E+03  0.00000000000E+00 0. -1.
       21    1    1    2  505  502  0.73858144614E+02 -0.55758031837E+02  0.10664996488E+03  0.14120268641E+03  0.00000000000E+00 0.  1.
<scales pt_clust_1="13000.00000" pt_clust_2="13000.00000" pt_clust_3="68.30487" pt_clust_4="91.65497"></scales>
<clustering>
<clus scale="   68.305">  2  5  1 -1</clus>
<clus scale="   91.655">  1  6  2 -1</clus>
<clus scale="  351.234">  2  3  1 -1</clus>
<clus scale="  351.234">  1  3  2 -1</clus>
</clustering>
</event>
<event>
 6   2  0.3464723E-02  0.6959542E+03  0.7816531E-02  0.9724176E-01
       21   -1    0    0  501  502  0.00000000000E+00  0.00000000000E+00  0.10888185915E+04  0.10888185915E+04  0.00000000000E+00 0.  1.
       21   -1    0    0  505  503  0.00000000000E+00  0.00000000000E+00 -0.10226577109E+04  0.10226577109E+04  0.00000000000E+00 0. -1.
  1000006    1    1    2  501    0 -0.43142339073E+03  0.11635455332E+03  0.50461211788E+03  0.75947212829E+03  0.35000000000E+03 0.  0.
 -1000006    1    1    2    0  503  0.57315272349E+03 -0.31320017124E+03 -0.49671488663E+03  0.89208972099E+03  0.35000000000E+03 0.  0.
       21    1    1    2  504  502 -0.36708233260E+02 -0.11825133642E+03  0.22653020951E+02  0.12587308018E+03  0.00000000000E+00 0.  1.
       21    1    1    2  505  504 -0.10502109950E+03  0.31509695434E+03  0.35610628492E+02  0.33404137294E+03  0.00000000000E+00 0.  1.
<scales pt_clust_1="13000.00000" pt_clust_2="13000.00000" pt_clust_3="123.81790" pt_clust_4="314.09086"></scales>
<clustering>
<clus scale="  123.818">  1  5  2 -1</clus>
<clus scale="  314.091">  1  6  2 -1</clus>
<clus scale="  695.954">  2  4  1 -1</clus>
<clus scale="  695.954">  1  3  2 -1</clus>
</clustering>
</event>
<event>
 4   0  0.3464723E-02  0.3866751E+03  0.7816531E-02  0.1048494E+00
       21   -1    0    0  503  502  0.00000000000E+00  0.00000000000E+00  0.33943217118E+03  0.33943217118E+03  0.00000000000E+00 0.  1.
       21   -1    0    0  501  503  0.00000000000E+00  0.00000000000E+00 -0.64186386969E+03  0.64186386969E+03  0.00000000000E+00 0.  1.
  1000006    1    1    2  501    0  0.11276272127E+03  0.11959188888E+03 -0.42603463336E+03  0.57534612192E+03  0.35000000000E+03 0.  0.
 -1000006    1    1    2    0  502 -0.11276272127E+03 -0.11959188888E+03  0.12360293484E+03  0.40594991895E+03  0.35000000000E+03 0.  0.
<scales pt_clust_1="13000.00000" pt_clust_2="13000.00000"></scales>
<clustering>
<clus scale="  386.675">  2  3  1 -1</clus>
<clus scale="  386.675">  1  3  2 -1</clus>
</clustering>
</event>
<event>
 4   0  0.3464723E-02  0.5959807E+03  0.7816531E-02  0.9913780E-01
       21   -1    0    0  503  502  0.00000000000E+00  0.00000000000E+00  0.11109538846E+04  0.11109538846E+04  0.00000000000E+00 0. -1.
       21   -1    0    0  501  503  0.00000000000E+00  0.00000000000E+00 -0.34360714404E+03  0.34360714404E+03  0.00000000000E+00 0.  1.
  1000006    1    1    2  501    0 -0.39123226676E+03 -0.28218845701E+03  0.19191139292E+03  0.62611739678E+03  0.35000000000E+03 0.  0.
 -1000006    1    1    2    0  502  0.39123226676E+03  0.28218845701E+03  0.57543534762E+03  0.82844363183E+03  0.35000000000E+03 0.  0.
<scales pt_clust_1="13000.00000" pt_clust_2="13000.00000"></scales>
<clustering>
<clus scale="  595.981">  2  3  1 -1</clus>
<clus scale="  595.981">  1  3  2 -1</clus>
</clustering>
</event>
<event>
 5   1  0.3464723E-02  0.3581995E+03  0.7816531E-02  0.1059299E+00
       21   -1    0    0  502  503  0.00000000000E+00  0.00000000000E+00  0.18790603267E+04  0.18790603267E+04  0.00000000000E+00 0. -1.
        2   -1    0    0  501    0  0.00000000000E+00  0.00000000000E+00 -0.13262201084E+03  0.13262201084E+03  0.00000000000E+00 0. -1.
  1000006    1    1    2  501    0  0.12598463884E+03  0.78156936878E+02  0.69606409285E+03  0.79308628620E+03  0.35000000000E+03 0.  0.
 -1000006    1    1    2    0  503 -0.32101501425E+02 -0.11321946073E+02  0.10457157775E+04  0.11032588908E+04  0.35000000000E+03 0.  0.
        2    1    1    2  502    0 -0.93883137410E+02 -0.66834990805E+02  0.46584455250E+01  0.11533716054E+03  0.00000000000E+00 0. -1.
<scales pt_clust_1="13000.00000" pt_clust_2="13000.00000" pt_clust_3="115.24305"></scales>
<clustering>
<clus scale="  115.243">  2  5  1 -1</clus>
<clus scale="  358.199">  2  3  1 -1</clus>
<clus scale="  358.199">  1  3  2 -1</clus>
</clustering>
</event>
<event>
 5   1  0.3464723E-02  0.3678336E+03  0.7816531E-02  0.1055524E+00
       21   -1    0    0  502  503  0.00000000000E+00  0.00000000000E+00  0.16838798800E+04  0.16838798800E+04  0.00000000000E+00 0.  1.
        2   -1    0    0  501    0  0.00000000000E+00  0.00000000000E+00 -0.67365420912E+03  0.67365420912E+03  0.00000000000E+00 0. -1.
  1000006    1    1    2  501    0  0.95253045696E+02  0.47337402292E+02  0.55730330030E+03  0.66663403821E+03  0.35000000000E+03 0.  0.
 -1000006    1    1    2    0  503 -0.11704653178E+03 -0.20319693106E+02  0.10395209221E+04  0.11032753636E+04  0.35000000000E+03 0.  0.
        2    1    1    2  502    0  0.21793486085E+02 -0.27017709186E+02 -0.58659855143E+03  0.58762468735E+03  0.00000000000E+00 0. -1.
<scales pt_clust_1="13000.00000" pt_clust_2="13000.00000" pt_clust_3="34.71185"></scales>
<clustering>
<clus scale="   34.712">  2  5  1 -1</clus>
<clus scale="  367.834">  2  3  1 -1</clus>
<clus scale="  367.834">  1  3  2 -1</clus>
</clustering>
</event>
<event>
 5   1  0.3464723E-02  0.6277111E+03  0.7816531E-02  0.9849526E-01
       21   -1    0    0  501  502  0.00000000000E+00  0.00000000000E+00  0.12935479257E+04  0.12935479257E+04  0.00000000000E+00 0.  1.
       21   -1    0    0  504  503  0.00000000000E+00  0.00000000000E+00 -0.35646919919E+03  0.35646919919E+03  0.00000000000E+00 0. -1.
  1000006    1    1    2  501    0 -0.30512750286E+03 -0.43413871939E+03  0.72727778054E+03  0.96592556170E+03  0.35000000000E+03 0.  0.
 -1000006    1    1    2    0  503  0.27572071279E+03  0.42178595891E+03  0.21807657172E+03  0.65113953784E+03  0.35000000000E+03 0.  0.
       21    1    1    2  504  502  0.29406790067E+02  0.12352760471E+02 -0.82756257563E+01  0.32952025355E+02  0.00000000000E+00 0.  1.
<scales pt_clust_1="13000.00000" pt_clust_2="13000.00000" pt_clust_3="31.89592"></scales>
<clustering>
<clus scale="   31.896">  2  5  1 -1</clus>
<clus scale="  627.711">  2  4  1 -1</clus>
<clus scale="  627.711">  1  3  2 -1</clus>
</clustering>
</event>
<event>
 6   2  0.3464723E-02  0.4177657E+03  0.7816531E-02  0.1037796E+00
       21   -1    0    0  501  502  0.00000000000E+00  0.00000000000E+00  0.64353335937E+03  0.64353335937E+03  0.00000000000E+00 0. -1.
       21   -1    0    0  505  503  0.00000000000E+00  0.00000000000E+00 -0.46602630344E+03  0.46602630344E+03  0.00000000000E+00 0. -1.
  1000006    1    1    2  501    0 -0.10770868879E+01  0.28689639861E+03  0.29522485112E+02  0.45352208411E+03  0.35000000000E+03 0.  0.
 -1000006    1    1    2    0  503  0.31897108496E+01 -0.18361689203E+03 -0.31242707086E+02  0.39648637308E+03  0.35000000000E+03 0.  0.
       21    1    1    2  504  502 -0.56442440822E+02 -0.13930444318E+02  0.13313193642E+03  0.14527187925E+03  0.00000000000E+00 0. -1.
       21    1    1    2  505  504  0.54329816861E+02 -0.89349062260E+02  0.46095341487E+02  0.11427932636E+03  0.00000000000E+00 0. -1.
<scales pt_clust_1="13000.00000" pt_clust_2="13000.00000" pt_clust_3="58.13610" pt_clust_4="102.18166"></scales>
<clustering>
<clus scale="   58.136">  1  5  2 -1</clus>
<clus scale="  102.182">  1  6  2 -1</clus>
<clus scale="  417.766">  1  3  2 -1</clus>
<clus scale="  417.766">  1  3  2 -1</clus>
</clustering>
</event>
<event>
 4   0  0.3464723E-02  0.3614941E+03  0.7816531E-02  0.1057994E+00
       21   -1    0    0  501  502  0.00000000000E+00  0.00000000000E+00  0.86497930005E+03  0.86497930005E+03  0.00000000000E+00 0. -1.
       21   -1    0    0  502  503  0.00000000000E+00  0.00000000000E+00 -0.16392824542E+03  0.16392824542E+03  0.00000000000E+00 0. -1.
  1000006    1    1    2  501    0  0.90288574113E+02  0.50945495061E+01  0.49457171598E+03  0.61260032917E+03  0.35000000000E+03 0.  0.
 -1000006    1    1    2    0  503 -0.90288574113E+02 -0.50945495061E+01  0.20647933865E+03  0.41630721630E+03  0.35000000000E+03 0.  0.
<scales pt_clust_1="13000.00000" pt_clust_2="13000.00000"></scales>
<clustering>
<clus scale="  361.494">  1  3  2 -1</clus>
<clus scale="  361.494">  1  3  2 -1</clus>
</clustering>
</event>
<event>
 5   1  0.3464723E-02  0.3913003E+03  0.7816531E-02  0.1046834E+00
       21   -1    0    0  501  502  0.00000000000E+00  0.00000000000E+00  0.50915187769E+03  0.50915187769E+03  0.00000000000E+00 0.  1.
       21   -1    0    0  504  503  0.00000000000E+00  0.00000000000E+00 -0.44827704834E+03  0.44827704834E+03  0.00000000000E+00 0.  1.
  1000006    1    1    2  501    0  0.38170955756E+02  0.16377010818E+03  0.22172539693E+03  0.44714630921E+03  0.35000000000E+03 0.  0.
 -1000006    1    1    2    0  503  0.30552517093E+02 -0.20026304644E+03 -0.15177892247E+03  0.43194396092E+03  0.35000000000E+03 0.  0.
       21    1    1    2  504  502 -0.68723472849E+02  0.36492938262E+02 -0.90716451112E+01  0.78338655901E+02  0.00000000000E+00 0.  1.
<scales pt_clust_1="13000.00000" pt_clust_2="13000.00000" pt_clust_3="77.81163"></scales>
<clustering>
<clus scale="   77.812">  2  5  1 -1</clus>
<clus scale="  391.300">  2  4  1 -1</clus>
<clus scale="  391.300">  1  3  2 -1</clus>
</clustering>
</event>
<event>
 5   1  0.3464723E-02  0.3508673E+03  0.7816531E-02  0.1062260E+00
       21   -1    0    0  504  502  0.00000000000E+00  0.00000000000E+00  0.57676802356E+03  0.57676802356E+03  0.00000000000E+00 0.  1.
       21   -1    0    0  501  503  0.00000000000E+00  0.00000000000E+00 -0.53163283869E+03  0.53163283869E+03  0.00000000000E+00 0.  1.
  1000006    1    1    2  501    0  0.22963076441E+02 -0.83340253960E+02 -0.18947130389E+03  0.40727420224E+03  0.35000000000E+03 0.  0.
 -1000006    1    1    2    0  502  0.66210250214E+02 -0.15490384754E+03  0.21980480773E+03  0.44631060117E+03  0.35000000000E+03 0.  0.
       21    1    1    2  504  503 -0.89173326654E+02  0.23824410149E+03  0.14801681038E+02  0.25481605884E+03  0.00000000000E+00 0.  1.
<scales pt_clust_1="13000.00000" pt_clust_2="13000.00000" pt_clust_3="254.38580"></scales>
<clustering>
<clus scale="  254.386">  1  5  2 -1</clus>
<clus scale="  350.867">  2  3  1 -1</clus>
<clus scale="  350.867">  1  3  2 -1</clus>
</clustering>
</event>
<event>
 6   2  0.3464723E-02  0.4526547E+03  0.7816531E-02  0.1026933E+00
       21   -1    0    0  505  502  0.00000000000E+00  0.00000000000E+00  0.10811797587E+04  0.10811797587E+04  0.00000000000E+00 0. -1.
       21   -1    0    0  504  503  0.00000000000E+00  0.00000000000E+00 -0.11500566489E+04  0.11500566489E+04  0.00000000000E+00 0. -1.
  1000006    1    1    2  501    0  0.11047872856E+03 -0.20923082015E+03 -0.41876690664E+03  0.59485192079E+03  0.35000000000E+03 0.  0.
 -1000006    1    1    2    0  502 -0.21061646384E+03  0.27694364677E+03 -0.36318885138E+03  0.61275053659E+03  0.35000000000E+03 0.  0.
       21    1    1    2  504  501  0.22344969831E+02 -0.28145223432E+02 -0.15097005354E+03  0.15518829964E+03  0.00000000000E+00 0. -1.
       21    1    1    2  505  503  0.77792765449E+02 -0.39567603183E+02  0.86404892129E+03  0.86844565055E+03  0.00000000000E+00 0. -1.
<scales pt_clust_1="13000.00000" pt_clust_2="13000.00000" pt_clust_3="35.93677" pt_clust_4="87.34926"></scales>
<clustering>
<clus scale="   35.937">  2  5  1 -1</clus>
<clus scale="   87.349">  1  6  2 -1</clus>
<clus scale="  452.655">  2  3  1 -1</clus>
<clus scale="  452.655">  1  3  2 -1</clus>
</clustering>
</event>
<event>
 5   1  0.3464723E-02  0.3663693E+03  0.7816531E-02  0.1056090E+00
       21   -1    0    0  503  502  0.00000000000E+00  0.00000000000E+00  0.59308529907E+03  0.59308529907E+03  0.00000000000E+00 0.  1.
       21   -1    0    0  504  503  0.00000000000E+00  0.00000000000E+00 -0.32527681259E+03  0.32527681259E+03  0.00000000000E+00 0.  1.
  1000006    1    1    2  501    0  0.26587829619E+02  0.10059264838E+03  0.79183558399E+02  0.37362525278E+03  0.35000000000E+03 0.  0.
 -1000006    1    1    2    0  502 -0.68208427608E+02 -0.91403710017E+02  0.26752723478E+03  0.45505807228E+03  0.35000000000E+03 0.  0.
       21    1    1    2  504  501  0.41620597989E+02 -0.91889383604E+01 -0.78902306696E+02  0.89678786606E+02  0.00000000000E+00 0.  1.
<scales pt_clust_1="13000.00000" pt_clust_2="13000.00000" pt_clust_3="42.62289"></scales>
<clustering>
<clus scale="   42.623">  2  5  1 -1</clus>
<clus scale="  366.369">  1  4  2 -1</clus>
<clus scale="  366.369">  1  3  2 -1</clus>
</clustering>
</event>
<event>
 4   0  0.3464723E-02  0.4341918E+03  0.7816531E-02  0.1032544E+00
       21   -1    0    0  501  502  0.00000000000E+00  0.00000000000E+00  0.14791735268E+04  0.14791735268E+04  0.00000000000E+00 0. -1.
       21   -1    0    0  502  503  0.00000000000E+00  0.00000000000E+00 -0.13159446187E+03  0.13159446187E+03  0.00000000000E+00 0.  1.
  1000006    1    1    2  501    0 -0.24544574839E+03 -0.76019029262E+02  0.81669636668E+03  0.92494078922E+03  0.35000000000E+03 0.  0.
 -1000006    1    1    2    0  503  0.24544574839E+03  0.76019029262E+02  0.53088269829E+03  0.68582719948E+03  0.35000000000E+03 0.  0.
<scales pt_clust_1="13000.00000" pt_clust_2="13000.00000"></scales>
<clustering>
<clus scale="  434.192">  1  3  2 -1</clus>
<clus scale="  434.192">  1  3  2 -1</clus>
</clustering>
</event>
<event>
 5   1  0.3464723E-02  0.4126114E+03  0.7816531E-02  0.1039498E+00
       21   -1    0    0  501  502  0.00000000000E+00  0.00000000000E+00  0.81414832439E+03  0.81414832439E+03  0.00000000000E+00 0.  1.
       21   -1    0    0  504  503  0.00000000000E+00  0.00000000000E+00 -0.34092778395E+03  0.34092778395E+03  0.00000000000E+00 0.  1.
  1000006    1    1    2  501    0 -0.72700379843E+02  0.20439826086E+03  0.36851139431E+03  0.55259808361E+03  0.35000000000E+03 0.  0.
 -1000006    1    1    2    0  503 -0.80381953492E+02 -0.24246889636E+03  0.99839664599E+02  0.44465760173E+03  0.35000000000E+03 0.  0.
       21    1    1    2  504  502  0.15308233333E+03  0.38070635505E+02  0.48694815374E+01  0.15782042300E+03  0.00000000000E+00 0.  1.
<scales pt_clust_1="13000.00000" pt_clust_2="13000.00000" pt_clust_3="157.74528"></scales>
<clustering>
<clus scale="  157.745">  2  5  1 -1</clus>
<clus scale="  412.611">  2  4  1 -1</clus>
<clus scale="  412.611">  1  3  2 -1</clus>
</clustering>
</event>
<event>
 4   0  0.3464723E-02  0.4639569E+03  0.7816531E-02  0.1023640E+00
       21   -1    0    0  503  502  0.00000000000E+00  0.00000000000E+00  0.13646833369E+03  0.13646833369E+03  0.00000000000E+00 0. -1.
       21   -1    0    0  501  503  0.00000000000E+00  0.00000000000E+00 -0.17059302921E+04  0.17059302921E+04  0.00000000000E+00 0.  1.
  1000006    1    1    2  501    0  0.30419281360E+03  0.14923406385E+02 -0.10376545190E+04  0.11366542467E+04  0.35000000000E+03 0.  0.
 -1000006    1    1    2    0  502 -0.30419281360E+03 -0.14923406385E+02 -0.53180743946E+03  0.70574437906E+03  0.35000000000E+03 0.  0.
<scales pt_clust_1="13000.00000" pt_clust_2="13000.00000"></scales>
<clustering>
<clus scale="  463.957">  2  3  1 -1</clus>
<clus scale="  463.957">  1  3  2 -1</clus>
</clustering>
</event>
<event>
 5   1  0.3464723E-02  0.5057843E+03  0.7816531E-02  0.1012280E+00
        2   -1    0    0  501    0  0.00000000000E+00  0.00000000000E+00  0.76315360640E+03  0.76315360640E+03  0.00000000000E+00 0. -1.
       21   -1    0    0  502  503  0.00000000000E+00  0.00000000000E+00 -0.77140219658E+03  0.77140219658E+03  0.00000000000E+00 0. -1.
  1000006    1    1    2  501    0  0.39893070741E+03 -0.26570426950E+02  0.38856889500E+03  0.65828374054E+03  0.35000000000E+03 0.  0.
 -1000006    1    1    2    0  503 -0.35491598522E+03  0.52239363895E+02 -0.53254290601E+03  0.73129765106E+03  0.35000000000E+03 0.  0.
        2    1    1    2  502    0 -0.44014722190E+02 -0.25668936945E+02  0.13572542084E+03  0.14497441138E+03  0.00000000000E+00 0. -1.
<scales pt_clust_1="13000.00000" pt_clust_2="13000.00000" pt_clust_3="50.95282"></scales>
<clustering>
<clus scale="   50.953">  1  5  2 -1</clus>
<clus scale="  505.784">  1  3  2 -1</clus>
<clus scale="  505.784">  2  3  1 -1</clus>
</clustering>
</event>
<event>
 5   1  0.3464723E-02  0.3922250E+03  0.7816531E-02  0.1046506E+00
       21   -1    0    0  501  502  0.00000000000E+00  0.00000000000E+00  0.68412079198E+03  0.68412079198E+03  0.00000000000E+00 0.  1.
       21   -1    0    0  502  503  0.00000000000E+00  0.00000000000E+00 -0.96764655006E+03  0.96764655006E+03  0.00000000000E+00 0. -1.
  1000006    1    1    2  501    0 -0.14714788359E+03  0.95377676902E+02  0.51835407670E+03  0.64956935713E+03  0.35000000000E+03 0.  0.
 -1000006    1    1    2    0  504  0.12052719632E+03 -0.15585018830E+03 -0.31387016883E+03  0.50973578365E+03  0.35000000000E+03 0.  0.
       21    1    1    2  504  503  0.26620687278E+02  0.60472511401E+02 -0.48800966594E+03  0.49246220126E+03  0.00000000000E+00 0. -1.
<scales pt_clust_1="13000.00000" pt_clust_2="13000.00000" pt_clust_3="66.07258"></scales>
<clustering>
<clus scale="   66.073">  2  5  1 -1</clus>
<clus scale="  392.225">  1  3  2 -1</clus>
<clus scale="  392.225">  1  3  2 -1</clus>
</clustering>
</event>
<event>
 6   2  0.3464723E-02  0.4153254E+03  0.7816531E-02  0.1038599E+00
       21   -1    0    0  502  503  0.00000000000E+00  0.00000000000E+00  0.62421381592E+03  0.62421381592E+03  0.00000000000E+00 0. -1.
        2   -1    0    0  501    0  0.00000000000E+00  0.00000000000E+00 -0.98774276918E+03  0.98774276918E+03  0.00000000000E+00 0. -1.
  1000006    1    1    2  501    0 -0.32277301836E+01 -0.20795460970E+03 -0.37629597164E+02  0.40886614499E+03  0.35000000000E+03 0.  0.
 -1000006    1    1    2    0  504  0.25992259449E+03  0.13982602524E+03  0.10181101693E+03  0.46901658354E+03  0.35000000000E+03 0.  0.
       21    1    1    2  504  503  0.38464599825E+02 -0.25753039938E+02  0.10674853666E+03  0.11635288817E+03  0.00000000000E+00 0. -1.
        2    1    1    2  502    0 -0.29515946413E+03  0.93881624396E+02 -0.53445890969E+03  0.61772096841E+03  0.00000000000E+00 0. -1.
<scales pt_clust_1="13000.00000" pt_clust_2="13000.00000" pt_clust_3="46.28979" pt_clust_4="306.12163"></scales>
<clustering>
<clus scale="   46.290">  1  5  2 -1</clus>
<clus scale="  306.122">  2  6  1 -1</clus>
<clus scale="  415.325">  2  3  1 -1</clus>
<clus scale="  415.325">  1  3  2 -1</clus>
</clustering>
</event>
<event>
 4   0  0.3464723E-02  0.3866088E+03  0.7816531E-02  0.1048518E+00
       21   -1    0    0  501  502  0.00000000000E+00  0.00000000000E+00  0.14190554010E+03  0.14190554010E+03  0.00000000000E+00 0.  1.
       21   -1    0    0  502  503  0.00000000000E+00  0.00000000000E+00 -0.10633831640E+04  0.10633831640E+04  0.00000000000E+00 0.  1.
  1000006    1    1    2  501    0 -0.11504246035E+03 -0.11718200297E+03 -0.40199983360E+03  0.55773672617E+03  0.35000000000E+03 0.  0.
 -1000006    1    1    2    0  503  0.11504246035E+03  0.11718200297E+03 -0.51947779028E+03  0.64755197791E+03  0.35000000000E+03 0.  0.
<scales pt_clust_1="13000.00000" pt_clust_2="13000.00000"></scales>
<clustering>
<clus scale="  386.609">  1  3  2 -1</clus>
<clus scale="  386.609">  1  3  2 -1</clus>
</clustering>
</event>
<event>
 5   1  0.3464723E-02  0.3989452E+03  0.7816531E-02  0.1044146E+00
       21   -1    0    0  504  502  0.00000000000E+00  0.00000000000E+00  0.29662593369E+04  0.29662593369E+04  0.00000000000E+00 0. -1.
       21   -1    0    0  501  503  0.00000000000E+00  0.00000000000E+00 -0.10194319242E+03  0.10194319242E+03  0.00000000000E+00 0. -1.
  1000006    1    1    2  501    0  0.96673197820E+02 -0.16406094162E+03  0.55041002121E+03  0.67949458511E+03  0.35000000000E+03 0.  0.
 -1000006    1    1    2    0  502 -0.93235628295E+01  0.20894815418E+03  0.11403714901E+04  0.12110711769E+04  0.35000000000E+03 0.  0.
       21    1    1    2  504  503 -0.87349634990E+02 -0.44887212562E+02  0.11735346332E+04  0.11776367674E+04  0.00000000000E+00 0. -1.
<scales pt_clust_1="13000.00000" pt_clust_2="13000.00000" pt_clust_3="98.20805"></scales>
<clustering>
<clus scale="   98.208">  1  5  2 -1</clus>
<clus scale="  398.945">  2  3  1 -1</clus>
<clus scale="  398.945">  1  3  2 -1</clus>
</clustering>
</event>
<event>
 5   1  0.3464723E-02  0.4796755E+03  0.7816531E-02  0.1019224E+00
       21   -1    0    0  504  502  0.00000000000E+00  0.00000000000E+00  0.14354094636E+04  0.14354094636E+04  0.00000000000E+00 0. -1.
       21   -1    0    0  502  503  0.00000000000E+00  0.00000000000E+00 -0.97133374072E+03  0.97133374072E+03  0.00000000000E+00 0.  1.
  1000006    1    1    2  501    0 -0.28698081940E+03 -0.15950256817E+03  0.23641858653E+03  0.53496991318E+03  0.35000000000E+03 0.  0.
 -1000006    1    1    2    0  503  0.26542488186E+03  0.19325265918E+03 -0.75157722366E+03  0.89172040535E+03  0.35000000000E+03 0.  0.
       21    1    1    2  504  501  0.21555937536E+02 -0.33750091010E+02  0.97923435999E+03  0.98005288575E+03  0.00000000000E+00 0. -1.
<scales pt_clust_1="13000.00000" pt_clust_2="13000.00000" pt_clust_3="40.04656"></scales>
<clustering>
<clus scale="   40.047">  1  5  2 -1</clus>
<clus scale="  479.676">  1  3  2 -1</clus>
<clus scale="  479.676">  1  3  2 -1</clus>
</clustering>
</event>
<event>
 5   1  0.3464723E-02  0.3722884E+03  0.7816531E-02  0.1053821E+00
       21   -1    0    0  501  502  0.00000000000E+00  0.00000000000E+00  0.53941101359E+03  0.53941101359E+03  0.00000000000E+00 0. -1.
       21   -1    0    0  504  503  0.00000000000E+00  0.00000000000E+00 -0.55697117404E+03  0.55697117404E+03  0.00000000000E+00 0. -1.
  1000006    1    1    2  501    0 -0.10473123737E+03 -0.14897301521E+02  0.11918371684E+03  0.38457160586E+03  0.35000000000E+03 0.  0.
 -1000006    1    1    2    0  503  0.13382558610E+03 -0.16288574134E+02 -0.33872214139E+03  0.50537836738E+03  0.35000000000E+03 0.  0.
       21    1    1    2  504  502 -0.29094348733E+02  0.31185875655E+02  0.20197826410E+03  0.20643221439E+03  0.00000000000E+00 0. -1.
<scales pt_clust_1="13000.00000" pt_clust_2="13000.00000" pt_clust_3="42.65020"></scales>
<clustering>
<clus scale="   42.650">  1  5  2 -1</clus>
<clus scale="  372.288">  1  3  2 -1</clus>
<clus scale="  372.288">  1  3  2 -1</clus>
</clustering>
</event>
<event>
 4   0  0.3464723E-02  0.5468910E+03  0.7816531E-02  0.1002216E+00
       21   -1    0    0  501  502  0.00000000000E+00  0.00000000000E+00  0.33543871399E+03  0.33543871399E+03  0.00000000000E+00 0. -1.
       21   -1    0    0  502  503  0.00000000000E+00  0.00000000000E+00 -0.13323868014E+04  0.13323868014E+04  0.00000000000E+00 0.  1.
  1000006    1    1    2  501    0 -0.35371031331E+03 -0.22688936906E+03 -0.18849695926E+02  0.54721575505E+03  0.35000000000E+03 0.  0.
 -1000006    1    1    2    0  503  0.35371031331E+03  0.22688936906E+03 -0.97809839149E+03  0.11206097603E+04  0.35000000000E+03 0.  0.
<scales pt_clust_1="13000.00000" pt_clust_2="13000.00000"></scales>
<clustering>
<clus scale="  546.891">  1  3  2 -1</clus>
<clus scale="  546.891">  1  3  2 -1</clus>
</clustering>
</event>
<event>
 5   1  0.3464723E-02  0.3676014E+03  0.7816531E-02  0.1055614E+00
       21   -1    0    0  504  502  0.00000000000E+00  0.00000000000E+00  0.21028948612E+03  0.21028948612E+03  0.00000000000E+00 0. -1.
       21   -1    0    0  501  503  0.00000000000E+00  0.00000000000E+00 -0.76235935418E+03  0.76235935418E+03  0.00000000000E+00 0. -1.
  1000006    1    1    2  501    0  0.80917739900E+02  0.58430030822E+02 -0.34546409756E+03  0.50180393765E+03  0.35000000000E+03 0.  0.
 -1000006    1    1    2    0  502 -0.89517412371E+02 -0.95633127450E+02 -0.21583708713E+03  0.43156078409E+03  0.35000000000E+03 0.  0.
       21    1    1    2  504  503  0.85996724711E+01  0.37203096628E+02  0.92313166312E+01  0.39284118573E+02  0.00000000000E+00 0. -1.
<scales pt_clust_1="13000.00000" pt_clust_2="13000.00000" pt_clust_3="38.18409"></scales>
<clustering>
<clus scale="   38.184">  1  5  2 -1</clus>
<clus scale="  367.601">  2  3  1 -1</clus>
<clus scale="  367.601">  1  3  2 -1</clus>
</clustering>
</event>
<event>
 4   0  0.3464723E-02  0.3690683E+03  0.7816531E-02  0.1055050E+00
       21   -1    0    0  501  502  0.00000000000E+00  0.00000000000E+00  0.26272249024E+03  0.26272249024E+03  0.00000000000E+00 0. -1.
       21   -1    0    0  502  503  0.00000000000E+00  0.00000000000E+00 -0.75574993554E+03  0.75574993554E+03  0.00000000000E+00 0. -1.
  1000006    1    1    2  501    0  0.10564784755E+03 -0.50497075872E+02  0.38830290243E+02  0.37110539447E+03  0.35000000000E+03 0.  0.
 -1000006    1    1    2    0  503 -0.10564784755E+03  0.50497075872E+02 -0.53185773555E+03  0.64736703131E+03  0.35000000000E+03 0.  0.
<scales pt_clust_1="13000.00000" pt_clust_2="13000.00000"></scales>
<clustering>
<clus scale="  369.068">  1  3  2 -1</clus>
<clus scale="  369.068">  1  3  2 -1</clus>
</clustering>
</event>
<event>
 6   2  0.3464723E-02  0.3870639E+03  0.7816531E-02  0.1048353E+00
        1   -1    0    0  501    0  0.00000000000E+00  0.00000000000E+00  0.22640452673E+04  0.22640452673E+04  0.00000000000E+00 0.  1.
       21   -1    0    0  502  503  0.00000000000E+00  0.00000000000E+00 -0.30996222281E+03  0.30996222281E+03  0.00000000000E+00 0.  1.
  1000006    1    1    2  501    0  0.18440093179E+03  0.49289404170E+02  0.16887001534E+03  0.43295522989E+03  0.35000000000E+03 0.  0.
 -1000006    1    1    2    0  504 -0.12758754456E+03 -0.67079745007E+02  0.60453627356E+02  0.38331829434E+03  0.35000000000E+03 0.  0.
       21    1    1    2  504  503 -0.27229359985E+02  0.30523079655E+02  0.92681220129E+01  0.41940368649E+02  0.00000000000E+00 0. -1.
        1    1    1    2  502    0 -0.29584027238E+02 -0.12732738818E+02  0.17154912798E+04  0.17157935972E+04  0.00000000000E+00 0.  1.
<scales pt_clust_1="13000.00000" pt_clust_2="13000.00000" pt_clust_3="41.40396" pt_clust_4="32.20772"></scales>
<clustering>
<clus scale="   32.208">  1  6  2 -1</clus>
<clus scale="   41.404">  2  5  1 -1</clus>
<clus scale="  387.064">  1  3  2 -1</clus>
<clus scale="  387.064">  2  3  1 -1</clus>
</clustering>
</event>
<event>
 6   2  0.3464723E-02  0.3663115E+03  0.7816531E-02  0.1056112E+00
       21   -1    0    0  502  503  0.00000000000E+00  0.00000000000E+00  0.10793893174E+04  0.10793893174E+04  0.00000000000E+00 0.  1.
        2   -1    0    0  504    0  0.00000000000E+00  0.00000000000E+00 -0.93112614196E+03  0.93112614196E+03  0.00000000000E+00 0. -1.
  1000006    1    1    2  501    0 -0.79501091235E+02 -0.98749820472E+02  0.38310786845E+03  0.53417561665E+03  0.35000000000E+03 0.  0.
 -1000006    1    1    2    0  503 -0.28643726772E+02  0.11258704403E+03  0.56036264127E+03  0.67082232767E+03  0.35000000000E+03 0.  0.
       21    1    1    2  504  501  0.35964838010E+02  0.11455748690E+02 -0.11528053811E+03  0.12130254003E+03  0.00000000000E+00 0. -1.
        2    1    1    2  502    0  0.72179979996E+02 -0.25292972252E+02 -0.67992679614E+03  0.68421497504E+03  0.00000000000E+00 0. -1.
<scales pt_clust_1="13000.00000" pt_clust_2="13000.00000" pt_clust_3="37.74525" pt_clust_4="103.55306"></scales>
<clustering>
<clus scale="   37.745">  2  5  1 -1</clus>
<clus scale="  103.553">  2  6  1 -1</clus>
<clus scale="  366.312">  2  3  1 -1</clus>
<clus scale="  366.312">  1  3  2 -1</clus>
</clustering>
</event>
<event>
 6   2  0.3464723E-02  0.3627928E+03  0.7816531E-02  0.1057483E+00
       21   -1    0    0  503  502  0.00000000000E+00  0.00000000000E+00  0.17585956872E+04  0.17585956872E+04  0.00000000000E+00 0. -1.
       21   -1    0    0  501  503  0.00000000000E+00  0.00000000000E+00 -0.26047346409E+03  0.26047346409E+03  0.00000000000E+00 0. -1.
  1000006    1    1    2  501    0 -0.77725068516E+02  0.61765844575E+02  0.70417572715E+02  0.37056017106E+03  0.35000000000E+03 0.  0.
 -1000006    1    1    2    0  504 -0.21805712582E+02 -0.12620031506E+03  0.21718356652E+03  0.43135914293E+03  0.35000000000E+03 0.  0.
       21    1    1    2  504  505  0.56796180014E+02  0.17420641103E+02  0.73611460648E+03  0.73850795437E+03  0.00000000000E+00 0.  1.
       21    1    1    2  505  502  0.42734601083E+02  0.47013829386E+02  0.47440647737E+03  0.47864188289E+03  0.00000000000E+00 0.  1.
<scales pt_clust_1="13000.00000" pt_clust_2="13000.00000" pt_clust_3="43.61359" pt_clust_4="126.85595"></scales>
<clustering>
<clus scale="   43.614">  5  6 -1 -1</clus>
<clus scale="  126.856">  1  5  2 -1</clus>
<clus scale="  362.793">  2  3  1 -1</clus>
<clus scale="  362.793">  1  3  2 -1</clus>
</clustering>
</event>
<event>
 5   1  0.3464723E-02  0.3684336E+03  0.7816531E-02  0.1055294E+00
       21   -1    0    0  501  502  0.00000000000E+00  0.00000000000E+00  0.17453934784E+04  0.17453934784E+04  0.00000000000E+00 0. -1.
       21   -1    0    0  504  503  0.00000000000E+00  0.00000000000E+00 -0.12548515938E+04  0.12548515938E+04  0.00000000000E+00 0. -1.
  1000006    1    1    2  501    0  0.95021478644E+02  0.29795029481E+01  0.14175683585E+04  0.14632286253E+04  0.35000000000E+03 0.  0.
 -1000006    1    1    2    0  503 -0.25202182084E+03  0.21928875270E+02  0.14325662371E+03  0.45499267465E+03  0.35000000000E+03 0.  0.
       21    1    1    2  504  502  0.15700034220E+03 -0.24908378218E+02 -0.10702830976E+04  0.10820237723E+04  0.00000000000E+00 0. -1.
<scales pt_clust_1="13000.00000" pt_clust_2="13000.00000" pt_clust_3="158.96394"></scales>
<clustering>
<clus scale="  158.964">  2  5  1 -1</clus>
<clus scale="  368.434">  1  3  2 -1</clus>
<clus scale="  368.434">  1  3  2 -1</clus>
</clustering>
</event>
<event>
 4   0  0.3464723E-02  0.3628594E+03  0.7816531E-02  0.1057457E+00
       21   -1    0    0  503  502  0.00000000000E+00  0.00000000000E+00  0.67320858818E+03  0.67320858818E+03  0.00000000000E+00 0.  1.
       21   -1    0    0  501  503  0.00000000000E+00  0.00000000000E+00 -0.32372336862E+03  0.32372336862E+03  0.00000000000E+00 0.  1.
  1000006    1    1    2  501    0 -0.36702731476E+02  0.88430134104E+02 -0.13887066803E+03  0.38852547092E+03  0.35000000000E+03 0.  0.
 -1000006    1    1    2    0  502  0.36702731476E+02 -0.88430134104E+02  0.48835588759E+03  0.60840648588E+03  0.35000000000E+03 0.  0.
<scales pt_clust_1="13000.00000" pt_clust_2="13000.00000"></scales>
<clustering>
<clus scale="  362.859">  2  3  1 -1</clus>
<clus scale="  362.859">  1  3  2 -1</clus>
</clustering>
</event>
<event>
 5   1  0.3464723E-02  0.3968807E+03  0.7816531E-02  0.1044865E+00
       21   -1    0    0  504  502  0.00000000000E+00  0.00000000000E+00  0.35007348976E+03  0.35007348976E+03  0.00000000000E+00 0.  1.
       21   -1    0    0  501  503  0.00000000000E+00  0.00000000000E+00 -0.85565257970E+03  0.85565257970E+03  0.00000000000E+00 0.  1.
  1000006    1    1    2  501    0 -0.52740947055E+02 -0.31127010478E+03 -0.19728976699E+03  0.51097351965E+03  0.35000000000E+03 0.  0.
 -1000006    1    1    2    0  502 -0.55030746693E+02  0.10099576245E+03 -0.10508253412E+03  0.38310685988E+03  0.35000000000E+03 0.  0.
       21    1    1    2  504  503  0.10777169375E+03  0.21027434233E+03 -0.20320678883E+03  0.31164568992E+03  0.00000000000E+00 0. -1.
<scales pt_clust_1="13000.00000" pt_clust_2="13000.00000" pt_clust_3="236.28381"></scales>
<clustering>
<clus scale="  236.284">  2  5  1 -1</clus>
<clus scale="  396.881">  2  3  1 -1</clus>
<clus scale="  396.881">  1  3  2 -1</clus>
</clustering>
</event>
<event>
 6   2  0.3464723E-02  0.7403176E+03  0.7816531E-02  0.9650664E-01
       21   -1    0    0  501  502  0.00000000000E+00  0.00000000000E+00  0.72947990940E+03  0.72947990940E+03  0.00000000000E+00 0.  1.
       21   -1    0    0  504  503  0.00000000000E+00  0.00000000000E+00 -0.17873430039E+04  0.17873430039E+04  0.00000000000E+00 0.  1.
  1000006    1    1    2  501    0  0.94539621012E+02 -0.62086090292E+03 -0.54820426535E+03  0.90412052142E+03  0.35000000000E+03 0.  0.
 -1000006    1    1    2    0  503 -0.16691790066E+03  0.65141011237E+03 -0.91402071631E+03  0.11874891957E+04  0.35000000000E+03 0.  0.
       21    1    1    2  504  505  0.54015380498E+02 -0.68074142746E+02  0.22875013871E+03  0.24470058479E+03  0.00000000000E+00 0. -1.
       21    1    1    2  505  502  0.18362899149E+02  0.37524933297E+02  0.17561174844E+03  0.18051261140E+03  0.00000000000E+00 0.  1.
<scales pt_clust_1="13000.00000" pt_clust_2="13000.00000" pt_clust_3="80.81929" pt_clust_4="41.77699"></scales>
<clustering>
<clus scale="   41.777">  1  6  2 -1</clus>
<clus scale="   80.819">  1  5  2 -1</clus>
<clus scale="  740.318">  2  4  1 -1</clus>
<clus scale="  740.318">  1  3  2 -1</clus>
</clustering>
</event>
<event>
 5   1  0.3464723E-02  0.3723605E+03  0.7816531E-02  0.1053794E+00
       21   -1    0    0  503  502  0.00000000000E+00  0.00000000000E+00  0.46782411685E+03  0.46782411685E+03  0.00000000000E+00 0. -1.
       21   -1    0    0  504  503  0.00000000000E+00  0.00000000000E+00 -0.84170227798E+03  0.84170227798E+03  0.00000000000E+00 0. -1.
  1000006    1    1    2  501    0  0.15934624045E+03 -0.40051794836E+02 -0.40055270609E+03  0.55672061303E+03  0.35000000000E+03 0.  0.
 -1000006    1    1    2    0  502 -0.94502927583E+02  0.78005425641E+02  0.29519071977E+03  0.47397596014E+03  0.35000000000E+03 0.  0.
       21    1    1    2  504  501 -0.64843312868E+02 -0.37953630805E+02 -0.26851617480E+03  0.27882982166E+03  0.00000000000E+00 0. -1.
<scales pt_clust_1="13000.00000" pt_clust_2="13000.00000" pt_clust_3="75.13410"></scales>
<clustering>
<clus scale="   75.134">  2  5  1 -1</clus>
<clus scale="  372.361">  1  4  2 -1</clus>
<clus scale="  372.361">  1  3  2 -1</clus>
</clustering>
</event>
<event>
 6   2  0.3464723E-02  0.3810511E+03  0.7816531E-02  0.1050546E+00
       21   -1    0    0  504  503  0.00000000000E+00  0.00000000000E+00  0.10988511878E+04  0.10988511878E+04  0.00000000000E+00 0. -1.
        2   -1    0    0  501    0  0.00000000000E+00  0.00000000000E+00 -0.98442046982E+03  0.98442046982E+03  0.00000000000E+00 0.  1.
  1000006    1    1    2  501    0  0.10122111287E+02 -0.11142252701E+03  0.29114972556E+03  0.46881296841E+03  0.35000000000E+03 0.  0.
 -1000006    1    1    2    0  503  0.47944641182E+01  0.17451425600E+03  0.65429959909E+03  0.76229008770E+03  0.35000000000E+03 0.  0.
       21    1    1    2  504  502 -0.29079781897E+02 -0.27055450869E+02 -0.28911383290E+02  0.49127377506E+02  0.00000000000E+00 0. -1.
        2    1    1    2  502    0  0.14163206491E+02 -0.36036278120E+02 -0.80210722335E+03  0.80304122404E+03  0.00000000000E+00 0.  1.
<scales pt_clust_1="13000.00000" pt_clust_2="13000.00000" pt_clust_3="43.45476" pt_clust_4="38.71963"></scales>
<clustering>
<clus scale="   38.720">  2  6  1 -1</clus>
<clus scale="   43.455">  2  5  1 -1</clus>
<clus scale="  381.051">  2  3  1 -1</clus>
<clus scale="  381.051">  1  3  2 -1</clus>
</clustering>
</event>
<event>
 4   0  0.3464723E-02  0.3985242E+03  0.7816531E-02  0.1044292E+00
       21   -1    0    0  501  502  0.00000000000E+00  0.00000000000E+00  0.67735746617E+03  0.67735746617E+03  0.00000000000E+00 0. -1.
       21   -1    0    0  502  503  0.00000000000E+00  0.00000000000E+00 -0.29914415685E+03  0.29914415685E+03  0.00000000000E+00 0. -1.
  1000006    1    1    2  501    0  0.18817929902E+03  0.30167872059E+02  0.41612473449E+03  0.57617822220E+03  0.35000000000E+03 0.  0.
 -1000006    1    1    2    0  503 -0.18817929902E+03 -0.30167872059E+02 -0.37911425165E+02  0.40032340082E+03  0.35000000000E+03 0.  0.
<scales pt_clust_1="13000.00000" pt_clust_2="13000.00000"></scales>
<clustering>
<clus scale="  398.524">  1  3  2 -1</clus>
<clus scale="  398.524">  1  3  2 -1</clus>
</clustering>
</event>
<event>
 6   2  0.3464723E-02  0.3685711E+03  0.7816531E-02  0.1055241E+00
       21   -1    0    0  504  502  0.00000000000E+00  0.00000000000E+00  0.21408096050E+04  0.21408096050E+04  0.00000000000E+00 0.  1.
       21   -1    0    0  501  503  0.00000000000E+00  0.00000000000E+00 -0.25829523882E+03  0.25829523882E+03  0.00000000000E+00 0.  1.
  1000006    1    1    2  501    0  0.31806254887E+02  0.10444420666E+03 -0.52442038580E+02  0.37036522186E+03  0.35000000000E+03 0.  0.
 -1000006    1    1    2    0  502 -0.27481291272E+02 -0.14593326573E+03  0.76473749891E+03  0.85403464898E+03  0.35000000000E+03 0.  0.
       21    1    1    2  504  505 -0.27398241355E+02 -0.14023121544E+02  0.69751533658E+03  0.69819406782E+03  0.00000000000E+00 0. -1.
       21    1    1    2  505  503  0.23073277739E+02  0.55512180615E+02  0.47270356926E+03  0.47651090516E+03  0.00000000000E+00 0.  1.
<scales pt_clust_1="13000.00000" pt_clust_2="13000.00000" pt_clust_3="30.77843" pt_clust_4="52.80642"></scales>
<clustering>
<clus scale="   30.778">  1  5  2 -1</clus>
<clus scale="   52.806">  1  6  2 -1</clus>
<clus scale="  368.571">  1  4  2 -1</clus>
<clus scale="  368.571">  1  3  2 -1</clus>
</clustering>
</event>
<event>
 6   2  0.3464723E-02  0.3689035E+03  0.7816531E-02  0.1055113E+00
       21   -1    0    0  501  502  0.00000000000E+00  0.00000000000E+00  0.11118503110E+04  0.11118503110E+04  0.00000000000E+00 0. -1.
       21   -1    0    0  505  503  0.00000000000E+00  0.00000000000E+00 -0.11449535688E+04  0.11449535688E+04  0.00000000000E+00 0. -1.
  1000006    1    1    2  501    0 -0.92828341191E+02  0.80579285912E+01  0.66007650624E+03  0.75291634677E+03  0.35000000000E+03 0.  0.
 -1000006    1    1    2    0  504  0.12973128203E+03  0.78783102786E+02 -0.19438735151E+02  0.38198801977E+03  0.35000000000E+03 0.  0.
       21    1    1    2  504  503 -0.37294648422E+02 -0.37381665137E+01 -0.88970696839E+03  0.89049612817E+03  0.00000000000E+00 0. -1.
       21    1    1    2  505  502  0.39170758138E+00 -0.83102864863E+02  0.21596593948E+03  0.23140338502E+03  0.00000000000E+00 0. -1.
<scales pt_clust_1="13000.00000" pt_clust_2="13000.00000" pt_clust_3="37.48152" pt_clust_4="83.21935"></scales>
<clustering>
<clus scale="   37.482">  2  5  1 -1</clus>
<clus scale="   83.219">  1  6  2 -1</clus>
<clus scale="  368.904">  1  3  2 -1</clus>
<clus scale="  368.904">  1  3  2 -1</clus>
</clustering>
</event>
<event>
 6   2  0.3464723E-02  0.3894408E+03  0.7816531E-02  0.1047499E+00
       21   -1    0    0  501  502  0.00000000000E+00  0.00000000000E+00  0.46800555400E+03  0.46800555400E+03  0.00000000000E+00 0. -1.
       21   -1    0    0  504  503  0.00000000000E+00  0.00000000000E+00 -0.23929471752E+04  0.23929471752E+04  0.00000000000E+00 0. -1.
  1000006    1    1    2  501    0  0.15664845165E+03 -0.13289905774E+03 -0.47655557284E+03  0.62594417559E+03  0.35000000000E+03 0.  0.
 -1000006    1    1    2    0  505 -0.20309815219E+02  0.16024789202E+03 -0.44925561955E+03  0.59196493746E+03  0.35000000000E+03 0.  0.
       21    1    1    2  504  502 -0.17705646411E+03 -0.57241178284E+02  0.29453567211E+03  0.34839174232E+03  0.00000000000E+00 0. -1.
       21    1    1    2  505  503  0.40717827671E+02  0.29892343998E+02 -0.12936661009E+04  0.12946518738E+04  0.00000000000E+00 0. -1.
<scales pt_clust_1="13000.00000" pt_clust_2="13000.00000" pt_clust_3="184.90498" pt_clust_4="50.51231"></scales>
<clustering>
<clus scale="   50.512">  2  6  1 -1</clus>
<clus scale="  184.905">  1  5  2 -1</clus>
<clus scale="  389.441">  1  3  2 -1</clus>
<clus scale="  389.441">  1  3  2 -1</clus>
</clustering>
</event>
<event>
 5   1  0.3464723E-02  0.3642270E+03  0.7816531E-02  0.1056923E+00
       21   -1    0    0  503  502  0.00000000000E+00  0.00000000000E+00  0.10997503815E+04  0.10997503815E+04  0.00000000000E+00 0. -1.
       21   -1    0    0  501  503  0.00000000000E+00  0.00000000000E+00 -0.14888072022E+03  0.14888072022E+03  0.00000000000E+00 0. -1.
  1000006    1    1    2  501    0  0.70316901921E+02 -0.74029475606E+02  0.27399244358E+03  0.45606654020E+03  0.35000000000E+03 0.  0.
 -1000006    1    1    2    0  504 -0.42872852511E+02  0.92597589248E+02  0.53869467382E+03  0.65046471589E+03  0.35000000000E+03 0.  0.
       21    1    1    2  504  502 -0.27444049410E+02 -0.18568113642E+02  0.13818254387E+03  0.14209984561E+03  0.00000000000E+00 0.  1.
<scales pt_clust_1="13000.00000" pt_clust_2="13000.00000" pt_clust_3="33.13534"></scales>
<clustering>
<clus scale="   33.135">  1  5  2 -1</clus>
<clus scale="  364.227">  2  3  1 -1</clus>
<clus scale="  364.227">  1  3  2 -1</clus>
</clustering>
</event>
<event>
 5   1  0.3464723E-02  0.3723091E+03  0.7816531E-02  0.1053814E+00
       21   -1    0    0  501  502  0.00000000000E+00  0.00000000000E+00  0.11522326118E+04  0.11522326118E+04  0.00000000000E+00 0. -1.
       21   -1    0    0  504  503  0.00000000000E+00  0.00000000000E+00 -0.43873473216E+03  0.43873473216E+03  0.00000000000E+00 0. -1.
  1000006    1    1    2  501    0  0.10778054351E+03  0.33990313965E+02  0.14672883976E+03  0.39598148873E+03  0.35000000000E+03 0.  0.
 -1000006    1    1    2    0  503 -0.11036999309E+03 -0.76425245674E+02 -0.20146878348E+03  0.42557258402E+03  0.35000000000E+03 0.  0.
       21    1    1    2  504  502  0.25894495747E+01  0.42434931709E+02  0.76823782336E+03  0.76941327121E+03  0.00000000000E+00 0. -1.
<scales pt_clust_1="13000.00000" pt_clust_2="13000.00000" pt_clust_3="42.51386"></scales>
<clustering>
<clus scale="   42.514">  1  5  2 -1</clus>
<clus scale="  372.309">  2  4  1 -1</clus>
<clus scale="  372.309">  1  3  2 -1</clus>
</clustering>
</event>
<event>
 5   1  0.3464723E-02  0.5202980E+03  0.7816531E-02  0.1008613E+00
       21   -1    0    0  503  502  0.00000000000E+00  0.00000000000E+00  0.21854945662E+04  0.21854945662E+04  0.00000000000E+00 0. -1.
       21   -1    0    0  504  503  0.00000000000E+00  0.00000000000E+00 -0.18079731944E+03  0.18079731944E+03  0.00000000000E+00 0.  1.
  1000006    1    1    2  501    0 -0.47923684320E+02  0.46663162142E+03  0.10169451721E+04  0.11733367942E+04  0.35000000000E+03 0.  0.
 -1000006    1    1    2    0  502  0.48282096963E+02 -0.31853274940E+03  0.90722519124E+03  0.10243787488E+04  0.35000000000E+03 0.  0.
       21    1    1    2  504  501 -0.35841264319E+00 -0.14809887203E+03  0.80526883499E+02  0.16857634271E+03  0.00000000000E+00 0.  1.
<scales pt_clust_1="13000.00000" pt_clust_2="13000.00000" pt_clust_3="148.09931"></scales>
<clustering>
<clus scale="  148.099">  2  5  1 -1</clus>
<clus scale="  520.298">  2  3  1 -1</clus>
<clus scale="  520.298">  1  3  2 -1</clus>
</clustering>
</event>
<event>
 5   1  0.3464723E-02  0.4428580E+03  0.7816531E-02  0.1029874E+00
       21   -1    0    0  502  503  0.00000000000E+00  0.00000000000E+00  0.50853222903E+03  0.50853222903E+03  0.00000000000E+00 0. -1.
        2   -1    0    0  501    0  0.00000000000E+00  0.00000000000E+00 -0.11205430224E+04  0.11205430224E+04  0.00000000000E+00 0. -1.
  1000006    1    1    2  501    0 -0.26773999843E+03 -0.10569821873E+03 -0.56395911472E+03  0.72346852266E+03  0.35000000000E+03 0.  0.
 -1000006    1    1    2    0  503  0.23578046414E+03  0.12896879804E+03  0.31388021604E+03  0.54152208464E+03  0.35000000000E+03 0.  0.
        2    1    1    2  502    0  0.31959534296E+02 -0.23270579307E+02 -0.36193189471E+03  0.36408464415E+03  0.00000000000E+00 0. -1.
<scales pt_clust_1="13000.00000" pt_clust_2="13000.00000" pt_clust_3="39.53393"></scales>
<clustering>
<clus scale="   39.534">  2  5  1 -1</clus>
<clus scale="  442.858">  1  4  2 -1</clus>
<clus scale="  442.858">  1  3  2 -1</clus>
</clustering>
</event>
<event>
 6   2  0.3464723E-02  0.7134995E+03  0.7816531E-02  0.9694421E-01
       21   -1    0    0  503  502  0.00000000000E+00  0.00000000000E+00  0.35518396414E+03  0.35518396414E+03  0.00000000000E+00 0. -1.
       21   -1    0    0  505  503  0.00000000000E+00  0.00000000000E+00 -0.25569722188E+04  0.25569722188E+04  0.00000000000E+00 0.  1.
  1000006    1    1    2  501    0 -0.43988411958E+03  0.33994396870E+03 -0.11366519654E+04  0.13128357213E+04  0.35000000000E+03 0.  0.
 -1000006    1    1    2    0  504  0.50432243250E+03 -0.37368795629E+03 -0.52581104447E+03  0.89048360966E+03  0.35000000000E+03 0.  0.
       21    1    1    2  504  502  0.63587864775E+02 -0.93738365108E+02  0.25255245680E+02  0.11605225148E+03  0.00000000000E+00 0. -1.
       21    1    1    2  505  501 -0.12802617769E+03  0.12748235269E+03 -0.56458049040E+03  0.59278460048E+03  0.00000000000E+00 0.  1.
<scales pt_clust_1="13000.00000" pt_clust_2="13000.00000" pt_clust_3="113.27090" pt_clust_4="175.16408"></scales>
<clustering>
<clus scale="  113.271">  1  5  2 -1</clus>
<clus scale="  175.164">  2  6  1 -1</clus>
<clus scale="  713.500">  2  3  1 -1</clus>
<clus scale="  713.500">  1  3  2 -1</clus>
</clustering>
</event>
<event>
 5   1  0.3464723E-02  0.4102763E+03  0.7816531E-02  0.1040278E+00
       21   -1    0    0  503  502  0.00000000000E+00  0.00000000000E+00  0.49044173458E+03  0.49044173458E+03  0.00000000000E+00 0. -1.
       21   -1    0    0  501  503  0.00000000000E+00  0.00000000000E+00 -0.13408719873E+04  0.13408719873E+04  0.00000000000E+00 0. -1.
  1000006    1    1    2  501    0  0.83010540345E+01 -0.21478500364E+03 -0.11560616773E+04  0.12268578185E+04  0.35000000000E+03 0.  0.
 -1000006    1    1    2    0  504  0.30701003923E+02  0.20803170153E+03  0.13615121891E+03  0.43041479400E+03  0.35000000000E+03 0.  0.
       21    1    1    2  504  502 -0.39002057958E+02  0.67533021094E+01  0.16948020567E+03  0.17404110931E+03  0.00000000000E+00 0.  1.
<scales pt_clust_1="13000.00000" pt_clust_2="13000.00000" pt_clust_3="39.58242"></scales>
<clustering>
<clus scale="   39.582">  1  5  2 -1</clus>
<clus scale="  410.276">  2  3  1 -1</clus>
<clus scale="  410.276">  1  3  2 -1</clus>
</clustering>
</event>
<event>
 6   2  0.3464723E-02  0.5405876E+03  0.7816531E-02  0.1003696E+00
       21   -1    0    0  504  502  0.00000000000E+00  0.00000000000E+00  0.98795805398E+03  0.98795805398E+03  0.00000000000E+00 0. -1.
       21   -1    0    0  505  503  0.00000000000E+00  0.00000000000E+00 -0.35937986511E+03  0.35937986511E+03  0.00000000000E+00 0.  1.
  1000006    1    1    2  501    0  0.39568673451E+03 -0.10923368148E+03  0.30511932055E+03  0.61975623338E+03  0.35000000000E+03 0.  0.
 -1000006    1    1    2    0  503 -0.39528461740E+03  0.11974102686E+03  0.24164870910E+03  0.59285912397E+03  0.35000000000E+03 0.  0.
       21    1    1    2  504  501 -0.83732660524E+01 -0.53641462713E+02  0.71299137884E+02  0.89616322003E+02  0.00000000000E+00 0. -1.
       21    1    1    2  505  502  0.79711489423E+01  0.43134117334E+02  0.10511021329E+02  0.45106239735E+02  0.00000000000E+00 0. -1.
<scales pt_clust_1="13000.00000" pt_clust_2="13000.00000" pt_clust_3="53.11713" pt_clust_4="43.86447"></scales>
<clustering>
<clus scale="   43.864">  2  6  1 -1</clus>
<clus scale="   53.117">  1  5  2 -1</clus>
<clus scale="  540.588">  1  3  2 -1</clus>
<clus scale="  540.588">  1  3  2 -1</clus>
</clustering>
</event>
<event>
 5   1  0.3464723E-02  0.4014298E+03  0.7816531E-02  0.1043286E+00
       21   -1    0    0  501  502  0.00000000000E+00  0.00000000000E+00  0.29524864706E+03  0.29524864706E+03  0.00000000000E+00 0.  1.
       21   -1    0    0  504  503  0.00000000000E+00  0.00000000000E+00 -0.13712957144E+04  0.13712957144E+04  0.00000000000E+00 0.  1.
  1000006    1    1    2  501    0  0.69988054838E+02 -0.18186736816E+03  0.15398479477E+02  0.40088799008E+03  0.35000000000E+03 0.  0.
 -1000006    1    1    2    0  503 -0.26198006740E+02  0.20325457809E+03 -0.39049680768E+03  0.56301555563E+03  0.35000000000E+03 0.  0.
       21    1    1    2  504  502 -0.43790048098E+02 -0.21387209922E+02 -0.70094873910E+03  0.70264081571E+03  0.00000000000E+00 0.  1.
<scales pt_clust_1="13000.00000" pt_clust_2="13000.00000" pt_clust_3="48.73378"></scales>
<clustering>
<clus scale="   48.734">  2  5  1 -1</clus>
<clus scale="  401.430">  1  3  2 -1</clus>
<clus scale="  401.430">  1  3  2 -1</clus>
</clustering>
</event>
<event>
 5   1  0.3464723E-02  0.3813926E+03  0.7816531E-02  0.1050420E+00
       21   -1    0    0  501  502  0.00000000000E+00  0.00000000000E+00  0.12855528910E+04  0.12855528910E+04  0.00000000000E+00 0.  1.
       21   -1    0    0  504  503  0.00000000000E+00  0.00000000000E+00 -0.25885770016E+03  0.25885770016E+03  0.00000000000E+00 0.  1.
  1000006    1    1    2  501    0  0.11747206189E+03 -0.13284654280E+03  0.28091857434E+03  0.48255894424E+03  0.35000000000E+03 0.  0.
 -1000006    1    1    2    0  503 -0.13275569879E+03  0.52421214662E+02  0.74068092787E+02  0.38517287246E+03  0.35000000000E+03 0.  0.
       21    1    1    2  504  502  0.15283636898E+02  0.80425328138E+02  0.67170852376E+03  0.67667877450E+03  0.00000000000E+00 0.  1.
<scales pt_clust_1="13000.00000" pt_clust_2="13000.00000" pt_clust_3="81.86466"></scales>
<clustering>
<clus scale="   81.865">  1  5  2 -1</clus>
<clus scale="  381.393">  1  3  2 -1</clus>
<clus scale="  381.393">  1  3  2 -1</clus>
</clustering>
</event>
<event>
 5   1  0.3464723E-02  0.3605895E+03  0.7816531E-02  0.1058351E+00
       21   -1    0    0  501  502  0.00000000000E+00  0.00000000000E+00  0.37030632751E+03  0.37030632751E+03  0.00000000000E+00 0.  1.
       21   -1    0    0  504  503  0.00000000000E+00  0.00000000000E+00 -0.41169849222E+03  0.41169849222E+03  0.00000000000E+00 0.  1.
  1000006    1    1    2  501    0 -0.18819248300E+02  0.76691293320E+02  0.55495591272E+02  0.36306401533E+03  0.35000000000E+03 0.  0.
 -1000006    1    1    2    0  503  0.61098369919E+02 -0.82694467578E+02 -0.89424086872E+02  0.37559027289E+03  0.35000000000E+03 0.  0.
       21    1    1    2  504  502 -0.42279121619E+02  0.60031742588E+01 -0.74636691051E+01  0.43350531514E+02  0.00000000000E+00 0.  1.
<scales pt_clust_1="13000.00000" pt_clust_2="13000.00000" pt_clust_3="42.70319"></scales>
<clustering>
<clus scale="   42.703">  2  5  1 -1</clus>
<clus scale="  360.590">  2  4  1 -1</clus>
<clus scale="  360.590">  1  3  2 -1</clus>
</clustering>
</event>
<event>
 5   1  0.3464723E-02  0.3917162E+03  0.7816531E-02  0.1046686E+00
       21   -1    0    0  501  502  0.00000000000E+00  0.00000000000E+00  0.22588985719E+04  0.22588985719E+04  0.00000000000E+00 0. -1.
       21   -1    0    0  504  503  0.00000000000E+00  0.00000000000E+00 -0.88456718109E+02  0.88456718109E+02  0.00000000000E+00 0. -1.
  1000006    1    1    2  501    0 -0.12798864464E+03 -0.15292208609E+03  0.12878823809E+04  0.13494099764E+04  0.35000000000E+03 0.  0.
 -1000006    1    1    2    0  503  0.67834125813E+02  0.15146399733E+03  0.64051368770E+03  0.74853229406E+03  0.35000000000E+03 0.  0.
       21    1    1    2  504  502  0.60154518832E+02  0.14580887603E+01  0.24204578527E+03  0.24941301956E+03  0.00000000000E+00 0. -1.
<scales pt_clust_1="13000.00000" pt_clust_2="13000.00000" pt_clust_3="60.17219"></scales>
<clustering>
<clus scale="   60.172">  1  5  2 -1</clus>
<clus scale="  391.716">  1  3  2 -1</clus>
<clus scale="  391.716">  1  3  2 -1</clus>
</clustering>
</event>
<event>
 4   0  0.3464723E-02  0.4297381E+03  0.7816531E-02  0.1033943E+00
       21   -1    0    0  503  502  0.00000000000E+00  0.00000000000E+00  0.14301402574E+03  0.14301402574E+03  0.00000000000E+00 0.  1.
       21   -1    0    0  501  503  0.00000000000E+00  0.00000000000E+00 -0.12990239188E+04  0.12990239188E+04  0.00000000000E+00 0. -1.
  1000006    1    1    2  501    0 -0.24166709265E+03  0.61415518703E+02 -0.63358156771E+03  0.76557197738E+03  0.35000000000E+03 0.  0.
 -1000006    1    1    2    0  502  0.24166709265E+03 -0.61415518703E+02 -0.52242832537E+03  0.67646596718E+03  0.35000000000E+03 0.  0.
<scales pt_clust_1="13000.00000" pt_clust_2="13000.00000"></scales>
<clustering>
<clus scale="  429.738">  2  3  1 -1</clus>
<clus scale="  429.738">  1  3  2 -1</clus>
</clustering>
</event>
<event>
 6   2  0.3464723E-02  0.3691235E+03  0.7816531E-02  0.1055029E+00
       21   -1    0    0  504  502  0.00000000000E+00  0.00000000000E+00  0.40764397233E+03  0.40764397233E+03  0.00000000000E+00 0.  1.
       21   -1    0    0  501  503  0.00000000000E+00  0.00000000000E+00 -0.14883195561E+04  0.14883195561E+04  0.00000000000E+00 0.  1.
  1000006    1    1    2  501    0 -0.22984070445E+03 -0.61983075162E+02 -0.53351924953E+03  0.68103703324E+03  0.35000000000E+03 0.  0.
 -1000006    1    1    2    0  502 -0.77433581418E+02  0.12746974938E+03  0.12672188106E+03  0.40100240857E+03  0.35000000000E+03 0.  0.
       21    1    1    2  504  505  0.35790976196E+03 -0.11543865142E+03 -0.49673051290E+03  0.62303024195E+03  0.00000000000E+00 0.  1.
       21    1    1    2  505  503 -0.50635476093E+02  0.49951977208E+02 -0.17714770240E+03  0.19089384467E+03  0.00000000000E+00 0. -1.
<scales pt_clust_1="13000.00000" pt_clust_2="13000.00000" pt_clust_3="349.06781" pt_clust_4="71.12771"></scales>
<clustering>
<clus scale="   71.128">  2  6  1 -1</clus>
<clus scale="  349.068">  2  5  1 -1</clus>
<clus scale="  369.123">  2  3  1 -1</clus>
<clus scale="  369.123">  1  3  2 -1</clus>
</clustering>
</event>
<event>
 5   1  0.3464723E-02  0.5380942E+03  0.7816531E-02  0.1004288E+00
       21   -1    0    0  502  503  0.00000000000E+00  0.00000000000E+00  0.50381859751E+03  0.50381859751E+03  0.00000000000E+00 0.  1.
        2   -1    0    0  501    0  0.00000000000E+00  0.00000000000E+00 -0.12061084829E+04  0.12061084829E+04  0.00000000000E+00 0. -1.
  1000006    1    1    2  501    0 -0.26015075607E+03  0.29437712639E+03 -0.42361420881E+03  0.67548893872E+03  0.35000000000E+03 0.  0.
 -1000006    1    1    2    0  503  0.25528088030E+03 -0.32659665549E+03  0.18228291154E+03  0.57232924359E+03  0.35000000000E+03 0.  0.
        2    1    1    2  502    0  0.48698757695E+01  0.32219529100E+02 -0.46095858811E+03  0.46210889809E+03  0.00000000000E+00 0. -1.
<scales pt_clust_1="13000.00000" pt_clust_2="13000.00000" pt_clust_3="32.58548"></scales>
<clustering>
<clus scale="   32.585">  2  5  1 -1</clus>
<clus scale="  538.094">  2  3  1 -1</clus>
<clus scale="  538.094">  1  3  2 -1</clus>
</clustering>
</event>
<event>
 6   2  0.3464723E-02  0.5888796E+03  0.7816531E-02  0.9928750E-01
       21   -1    0    0  504  503  0.00000000000E+00  0.00000000000E+00  0.16657461540E+04  0.16657461540E+04  0.00000000000E+00 0. -1.
        2   -1    0    0  503    0  0.00000000000E+00  0.00000000000E+00 -0.10048660813E+04  0.10048660813E+04  0.00000000000E+00 0.  1.
  1000006    1    1    2  501    0  0.17821456726E+03 -0.46779369002E+03  0.10152721906E+04  0.11848497750E+04  0.35000000000E+03 0.  0.
 -1000006    1    1    2    0  502  0.52353063407E+02  0.48646899264E+03 -0.24307013772E+03  0.64882664549E+03  0.35000000000E+03 0.  0.
       21    1    1    2  504  501 -0.40365663654E+02  0.16684014656E+02  0.34162379876E+03  0.34440465013E+03  0.00000000000E+00 0.  1.
        2    1    1    2  502    0 -0.19020196701E+03 -0.35359317275E+02 -0.45294577893E+03  0.49253116472E+03  0.00000000000E+00 0.  1.
<scales pt_clust_1="13000.00000" pt_clust_2="13000.00000" pt_clust_3="43.67772" pt_clust_4="194.00930"></scales>
<clustering>
<clus scale="   43.678">  1  5  2 -1</clus>
<clus scale="  194.009">  2  6  1 -1</clus>
<clus scale="  588.880">  2  4  1 -1</clus>
<clus scale="  588.880">  1  3  2 -1</clus>
</clustering>
</event>
<event>
 5   1  0.3464723E-02  0.4315236E+03  0.7816531E-02  0.1033380E+00
       21   -1    0    0  504  502  0.00000000000E+00  0.00000000000E+00  0.20388968816E+04  0.20388968816E+04  0.00000000000E+00 0. -1.
       21   -1    0    0  502  503  0.00000000000E+00  0.00000000000E+00 -0.70737402532E+03  0.70737402532E+03  0.00000000000E+00 0. -1.
  1000006    1    1    2  501    0  0.25152325025E+03 -0.14307967100E+03 -0.19043969938E+03  0.49244595315E+03  0.35000000000E+03 0.  0.
 -1000006    1    1    2    0  503 -0.21531180291E+03  0.68146653415E+02 -0.24609911789E+03  0.48380565796E+03  0.35000000000E+03 0.  0.
       21    1    1    2  504  501 -0.36211447336E+02  0.74933017583E+02  0.17680616735E+04  0.17700192958E+04  0.00000000000E+00 0. -1.
<scales pt_clust_1="13000.00000" pt_clust_2="13000.00000" pt_clust_3="83.22395"></scales>
<clustering>
<clus scale="   83.224">  1  5  2 -1</clus>
<clus scale="  431.524">  1  3  2 -1</clus>
<clus scale="  431.524">  1  3  2 -1</clus>
</clustering>
</event>
<event>
 4   0  0.3464723E-02  0.3574410E+03  0.7816531E-02  0.1059602E+00
       21   -1    0    0  501  502  0.00000000000E+00  0.00000000000E+00  0.14706483164E+04  0.14706483164E+04  0.00000000000E+00 0. -1.
       21   -1    0    0  502  503  0.00000000000E+00  0.00000000000E+00 -0.10267288755E+03  0.10267288755E+03  0.00000000000E+00 0. -1.
  1000006    1    1    2  501    0 -0.64557942946E+02 -0.33111249291E+02  0.99255146465E+03  0.10549514173E+04  0.35000000000E+03 0.  0.
 -1000006    1    1    2    0  503  0.64557942946E+02  0.33111249291E+02  0.37542396415E+03  0.51836978663E+03  0.35000000000E+03 0.  0.
<scales pt_clust_1="13000.00000" pt_clust_2="13000.00000"></scales>
<clustering>
<clus scale="  357.441">  1  3  2 -1</clus>
<clus scale="  357.441">  1  3  2 -1</clus>
</clustering>
</event>
<event>
 4   0  0.3464723E-02  0.3862233E+03  0.7816531E-02  0.1048657E+00
       21   -1    0    0  501  502  0.00000000000E+00  0.00000000000E+00  0.93725958792E+03  0.93725958792E+03  0.00000000000E+00 0.  1.
       21   -1    0    0  502  503  0.00000000000E+00  0.00000000000E+00 -0.31356118302E+03  0.31356118302E+03  0.00000000000E+00 0.  1.
  1000006    1    1    2  501    0  0.24755249670E+02  0.16141754995E+03  0.75072126795E+03  0.84424574027E+03  0.35000000000E+03 0.  0.
 -1000006    1    1    2    0  503 -0.24755249670E+02 -0.16141754995E+03 -0.12702286305E+03  0.40657503066E+03  0.35000000000E+03 0.  0.
<scales pt_clust_1="13000.00000" pt_clust_2="13000.00000"></scales>
<clustering>
<clus scale="  386.223">  1  3  2 -1</clus>
<clus scale="  386.223">  1  3  2 -1</clus>
</clustering>
</event>
<event>
 5   1  0.3464723E-02  0.4076639E+03  0.7816531E-02  0.1041158E+00
       21   -1    0    0  504  502  0.00000000000E+00  0.00000000000E+00  0.72890774634E+03  0.72890774634E+03  0.00000000000E+00 0. -1.
       21   -1    0    0  502  503  0.00000000000E+00  0.00000000000E+00 -0.15617173461E+04  0.15617173461E+04  0.00000000000E+00 0.  1.
  1000006    1    1    2  501    0  0.27903426594E+03  0.12780275523E+03 -0.14673888301E+03  0.48808397392E+03  0.35000000000E+03 0.  0.
 -1000006    1    1    2    0  503 -0.19315141700E+03  0.58043644553E+02 -0.11910241252E+04  0.12576625149E+04  0.35000000000E+03 0.  0.
       21    1    1    2  504  501 -0.85882848942E+02 -0.18584639978E+03  0.50495340842E+03  0.54487860366E+03  0.00000000000E+00 0. -1.
<scales pt_clust_1="13000.00000" pt_clust_2="13000.00000" pt_clust_3="204.73092"></scales>
<clustering>
<clus scale="  204.731">  1  5  2 -1</clus>
<clus scale="  407.664">  1  3  2 -1</clus>
<clus scale="  407.664">  1  3  2 -1</clus>
</clustering>
</event>
<event>
 5   1  0.3464723E-02  0.3524793E+03  0.7816531E-02  0.1061602E+00
       21   -1    0    0  501  502  0.00000000000E+00  0.00000000000E+00  0.10303022464E+04  0.10303022464E+04  0.00000000000E+00 0. -1.
       21   -1    0    0  504  503  0.00000000000E+00  0.00000000000E+00 -0.29335433669E+03  0.29335433669E+03  0.00000000000E+00 0. -1.
  1000006    1    1    2  501    0 -0.53712522995E+02  0.17980095605E+02  0.60540452429E+03  0.70158602965E+03  0.35000000000E+03 0.  0.
 -1000006    1    1    2    0  503  0.85803880513E+01  0.83224804546E+02  0.26624557214E+03  0.44764572581E+03  0.35000000000E+03 0.  0.
       21    1    1    2  504  502  0.45132134944E+02 -0.10120490015E+03 -0.13470218666E+03  0.17442482768E+03  0.00000000000E+00 0. -1.
<scales pt_clust_1="13000.00000" pt_clust_2="13000.00000" pt_clust_3="110.81219"></scales>
<clustering>
<clus scale="  110.812">  2  5  1 -1</clus>
<clus scale="  352.479">  2  4  1 -1</clus>
<clus scale="  352.479">  1  3  2 -1</clus>
</clustering>
</event>
<event>
 4   0  0.3464723E-02  0.3662300E+03  0.7816531E-02  0.1056144E+00
       21   -1    0    0  501  502  0.00000000000E+00  0.00000000000E+00  0.65906021579E+03  0.65906021579E+03  0.00000000000E+00 0. -1.
       21   -1    0    0  502  503  0.00000000000E+00  0.00000000000E+00 -0.29741429344E+03  0.29741429344E+03  0.00000000000E+00 0. -1.
  1000006    1    1    2  501    0  0.47533993841E+02  0.96772688182E+02  0.44954816846E+03  0.57984307318E+03  0.35000000000E+03 0.  0.
 -1000006    1    1    2    0  503 -0.47533993841E+02 -0.96772688182E+02 -0.87902246104E+02  0.37663143605E+03  0.35000000000E+03 0.  0.
<scales pt_clust_1="13000.00000" pt_clust_2="13000.00000"></scales>
<clustering>
<clus scale="  366.230">  1  3  2 -1</clus>
<clus scale="  366.230">  1  3  2 -1</clus>
</clustering>
</event>
<event>
 4   0  0.3464723E-02  0.3989268E+03  0.7816531E-02  0.1044152E+00
       21   -1    0    0  501  502  0.00000000000E+00  0.00000000000E+00  0.48571384877E+03  0.48571384877E+03  0.00000000000E+00 0.  1.
       21   -1    0    0  502  503  0.00000000000E+00  0.00000000000E+00 -0.37607756235E+03  0.37607756235E+03  0.00000000000E+00 0.  1.
  1000006    1    1    2  501    0 -0.18988097579E+03  0.24244633214E+02  0.20944827166E+03  0.45056760392E+03  0.35000000000E+03 0.  0.
 -1000006    1    1    2    0  503  0.18988097579E+03 -0.24244633214E+02 -0.99811985246E+02  0.41122380720E+03  0.35000000000E+03 0.  0.
<scales pt_clust_1="13000.00000" pt_clust_2="13000.00000"></scales>
<clustering>
<clus scale="  398.927">  1  3  2 -1</clus>
<clus scale="  398.927">  1  3  2 -1</clus>
</clustering>
</event>
<event>
 4   0  0.3464723E-02  0.3612851E+03  0.7816531E-02  0.1058076E+00
       21   -1    0    0  503  502  0.00000000000E+00  0.00000000000E+00  0.21319226939E+03  0.21319226939E+03  0.00000000000E+00 0. -1.
       21   -1    0    0  501  503  0.00000000000E+00  0.00000000000E+00 -0.61453227124E+03  0.61453227124E+03  0.00000000000E+00 0. -1.
  1000006    1    1    2  501    0  0.80768355412E+02 -0.38773644482E+02 -0.22589242593E+03  0.42609190421E+03  0.35000000000E+03 0.  0.
 -1000006    1    1    2    0  502 -0.80768355412E+02  0.38773644482E+02 -0.17544757591E+03  0.40163263642E+03  0.35000000000E+03 0.  0.
<scales pt_clust_1="13000.00000" pt_clust_2="13000.00000"></scales>
<clustering>
<clus scale="  361.285">  2  3  1 -1</clus>
<clus scale="  361.285">  1  3  2 -1</clus>
</clustering>
</event>
<event>
 5   1  0.3464723E-02  0.3660404E+03  0.7816531E-02  0.1056217E+00
       21   -1    0    0  504  502  0.00000000000E+00  0.00000000000E+00  0.50859106709E+03  0.50859106709E+03  0.00000000000E+00 0. -1.
       21   -1    0    0  502  503  0.00000000000E+00  0.00000000000E+00 -0.10108990551E+04  0.10108990551E+04  0.00000000000E+00 0. -1.
  1000006    1    1    2  501    0 -0.15128553208E+03 -0.10832924223E+03 -0.16080399689E+03  0.42776215629E+03  0.35000000000E+03 0.  0.
 -1000006    1    1    2    0  503 -0.66737925834E+01  0.98916638529E+02 -0.65008342334E+03  0.74494127164E+03  0.35000000000E+03 0.  0.
       21    1    1    2  504  501  0.15795932467E+03  0.94126036976E+01  0.30857943220E+03  0.34678669429E+03  0.00000000000E+00 0. -1.
<scales pt_clust_1="13000.00000" pt_clust_2="13000.00000" pt_clust_3="158.23952"></scales>
<clustering>
<clus scale="  158.240">  1  5  2 -1</clus>
<clus scale="  366.040">  1  3  2 -1</clus>
<clus scale="  366.040">  1  3  2 -1</clus>
</clustering>
</event>
<event>
 4   0  0.3464723E-02  0.3799400E+03  0.7816531E-02  0.1050956E+00
       21   -1    0    0  501  502  0.00000000000E+00  0.00000000000E+00  0.11485448011E+04  0.11485448011E+04  0.00000000000E+00 0. -1.
       21   -1    0    0  502  503  0.00000000000E+00  0.00000000000E+00 -0.24170837047E+03  0.24170837047E+03  0.00000000000E+00 0. -1.
  1000006    1    1    2  501    0 -0.71159900051E+02 -0.12957868199E+03  0.93502387959E+03  0.10092690531E+04  0.35000000000E+03 0.  0.
 -1000006    1    1    2    0  503  0.71159900051E+02  0.12957868199E+03 -0.28187448989E+02  0.38098411841E+03  0.35000000000E+03 0.  0.
<scales pt_clust_1="13000.00000" pt_clust_2="13000.00000"></scales>
<clustering>
<clus scale="  379.940">  1  3  2 -1</clus>
<clus scale="  379.940">  1  3  2 -1</clus>
</clustering>
</event>
<event>
 5   1  0.3464723E-02  0.3506538E+03  0.7816531E-02  0.1062347E+00
       21   -1    0    0  504  502  0.00000000000E+00  0.00000000000E+00  0.47739100387E+03  0.47739100387E+03  0.00000000000E+00 0.  1.
       21   -1    0    0  501  503  0.00000000000E+00  0.00000000000E+00 -0.38022365440E+03  0.38022365440E+03  0.00000000000E+00 0.  1.
  1000006    1    1    2  501    0  0.29034776334E+02 -0.11536506551E+02  0.84941512518E+02  0.36151233695E+03  0.35000000000E+03 0.  0.
 -1000006    1    1    2    0  502 -0.13928336544E+02 -0.17861996804E+02  0.12979276361E+03  0.37397755411E+03  0.35000000000E+03 0.  0.
       21    1    1    2  504  503 -0.15106439791E+02  0.29398503355E+02 -0.11756692666E+03  0.12212476721E+03  0.00000000000E+00 0. -1.
<scales pt_clust_1="13000.00000" pt_clust_2="13000.00000" pt_clust_3="33.05263"></scales>
<clustering>
<clus scale="   33.053">  2  5  1 -1</clus>
<clus scale="  350.654">  2  3  1 -1</clus>
<clus scale="  350.654">  1  3  2 -1</clus>
</clustering>
</event>
<event>
 4   0  0.3464723E-02  0.3737880E+03  0.7816531E-02  0.1053254E+00
       21   -1    0    0  501  502  0.00000000000E+00  0.00000000000E+00  0.26396345509E+03  0.26396345509E+03  0.00000000000E+00 0. -1.
       21   -1    0    0  502  503  0.00000000000E+00  0.00000000000E+00 -0.98865016601E+03  0.98865016601E+03  0.00000000000E+00 0. -1.
  1000006    1    1    2  501    0  0.25405966147E+02  0.12873235059E+03  0.64565184071E+02  0.37932327136E+03  0.35000000000E+03 0.  0.
 -1000006    1    1    2    0  503 -0.25405966147E+02 -0.12873235059E+03 -0.78925189499E+03  0.87329034974E+03  0.35000000000E+03 0.  0.
<scales pt_clust_1="13000.00000" pt_clust_2="13000.00000"></scales>
<clustering>
<clus scale="  373.788">  1  3  2 -1</clus>
<clus scale="  373.788">  1  3  2 -1</clus>
</clustering>
</event>
<event>
 6   2  0.3464723E-02  0.3896083E+03  0.7816531E-02  0.1047439E+00
       21   -1    0    0  501  503  0.00000000000E+00  0.00000000000E+00  0.13432446968E+04  0.13432446968E+04  0.00000000000E+00 0.  1.
        1   -1    0    0  504    0  0.00000000000E+00  0.00000000000E+00 -0.82855807210E+03  0.82855807210E+03  0.00000000000E+00 0.  1.
  1000006    1    1    2  501    0  0.83188937426E+01 -0.80951137560E+02  0.29621730911E+03  0.46568979469E+03  0.35000000000E+03 0.  0.
 -1000006    1    1    2    0  502  0.17054571249E+03  0.22103640009E+03 -0.37315548144E+03  0.58282754185E+03  0.35000000000E+03 0.  0.
       21    1    1    2  504  503 -0.23784587710E+02 -0.10479422535E+03  0.82988790732E+03  0.83681627315E+03  0.00000000000E+00 0.  1.
        1    1    1    2  502    0 -0.15508001853E+03 -0.35291037176E+02 -0.23826311030E+03  0.28646915921E+03  0.00000000000E+00 0.  1.
<scales pt_clust_1="13000.00000" pt_clust_2="13000.00000" pt_clust_3="107.45946" pt_clust_4="161.30540"></scales>
<clustering>
<clus scale="  107.459">  1  5  2 -1</clus>
<clus scale="  161.305">  2  6  1 -1</clus>
<clus scale="  389.608">  2  4  1 -1</clus>
<clus scale="  389.608">  1  3  2 -1</clus>
</clustering>
</event>
<event>
 6   2  0.3464723E-02  0.3695614E+03  0.7816531E-02  0.1054861E+00
       21   -1    0    0  501  502  0.00000000000E+00  0.00000000000E+00  0.14943391736E+03  0.14943391736E+03  0.00000000000E+00 0.  1.
       21   -1    0    0  505  503  0.00000000000E+00  0.00000000000E+00 -0.14564682752E+04  0.14564682752E+04  0.00000000000E+00 0.  1.
  1000006    1    1    2  501    0 -0.13453113568E+03 -0.47219654570E+02 -0.42270200939E+03  0.56701438340E+03  0.35000000000E+03 0.  0.
 -1000006    1    1    2    0  503  0.97766697446E+02 -0.70901719203E+02 -0.65799602230E+03  0.75501267955E+03  0.35000000000E+03 0.  0.
       21    1    1    2  504  502  0.76517440364E+01  0.67530146710E+02 -0.22105540161E+02  0.71466949055E+02  0.00000000000E+00 0.  1.
       21    1    1    2  505  504  0.29112694202E+02  0.50591227062E+02 -0.20423078598E+03  0.21240818055E+03  0.00000000000E+00 0. -1.
<scales pt_clust_1="13000.00000" pt_clust_2="13000.00000" pt_clust_3="69.97488" pt_clust_4="58.36969"></scales>
<clustering>
<clus scale="   58.370">  2  6  1 -1</clus>
<clus scale="   69.975">  1  5  2 -1</clus>
<clus scale="  369.561">  1  3  2 -1</clus>
<clus scale="  369.561">  1  3  2 -1</clus>
</clustering>
</event>
<event>
 5   1  0.3464723E-02  0.4753245E+03  0.7816531E-02  0.1020428E+00
       21   -1    0    0  501  502  0.00000000000E+00  0.00000000000E+00  0.23598887725E+04  0.23598887725E+04  0.00000000000E+00 0. -1.
       21   -1    0    0  502  503  0.00000000000E+00  0.00000000000E+00 -0.23461884374E+03  0.23461884374E+03  0.00000000000E+00 0. -1.
  1000006    1    1    2  501    0 -0.68420704765E+02 -0.32317100603E+03  0.17615004544E+04  0.18260626338E+04  0.35000000000E+03 0.  0.
 -1000006    1    1    2    0  504  0.88317094255E+02  0.28380461728E+03  0.46776850665E+03  0.65547871494E+03  0.35000000000E+03 0.  0.
       21    1    1    2  504  503 -0.19896389490E+02  0.39366388752E+02 -0.10399903224E+03  0.11296626746E+03  0.00000000000E+00 0. -1.
<scales pt_clust_1="13000.00000" pt_clust_2="13000.00000" pt_clust_3="44.10872"></scales>
<clustering>
<clus scale="   44.109">  2  5  1 -1</clus>
<clus scale="  475.324">  2  4  1 -1</clus>
<clus scale="  475.324">  1  3  2 -1</clus>
</clustering>
</event>
<event>
 4   0  0.3464723E-02  0.3605230E+03  0.7816531E-02  0.1058377E+00
       21   -1    0    0  501  502  0.00000000000E+00  0.00000000000E+00  0.76939057884E+03  0.76939057884E+03  0.00000000000E+00 0. -1.
       21   -1    0    0  502  503  0.00000000000E+00  0.00000000000E+00 -0.16957362249E+03  0.16957362249E+03  0.00000000000E+00 0. -1.
  1000006    1    1    2  501    0  0.64797671102E+02 -0.57254902710E+02  0.32872368980E+03  0.48788946115E+03  0.35000000000E+03 0.  0.
 -1000006    1    1    2    0  503 -0.64797671102E+02  0.57254902710E+02  0.27109326654E+03  0.45107474018E+03  0.35000000000E+03 0.  0.
<scales pt_clust_1="13000.00000" pt_clust_2="13000.00000"></scales>
<clustering>
<clus scale="  360.523">  1  3  2 -1</clus>
<clus scale="  360.523">  1  3  2 -1</clus>
</clustering>
</event>
<event>
 6   2  0.3464723E-02  0.4160805E+03  0.7816531E-02  0.1038350E+00
       21   -1    0    0  504  502  0.00000000000E+00  0.00000000000E+00  0.29800649883E+03  0.29800649883E+03  0.00000000000E+00 0. -1.
       21   -1    0    0  505  503  0.00000000000E+00  0.00000000000E+00 -0.28415178795E+04  0.28415178795E+04  0.00000000000E+00 0. -1.
  1000006    1    1    2  501    0  0.11324677812E+03 -0.91903401680E+01 -0.58376506669E+03  0.69006590134E+03  0.35000000000E+03 0.  0.
 -1000006    1    1    2    0  502 -0.32751297290E+03  0.30559113922E+03 -0.45645997039E+03  0.72904485209E+03  0.35000000000E+03 0.  0.
       21    1    1    2  504  503  0.21175263515E+03 -0.15110835654E+03 -0.56317577442E+02  0.26616645813E+03  0.00000000000E+00 0. -1.
       21    1    1    2  505  501  0.25135596361E+01 -0.14529244251E+03 -0.14469687661E+04  0.14542471667E+04  0.00000000000E+00 0. -1.
<scales pt_clust_1="13000.00000" pt_clust_2="13000.00000" pt_clust_3="270.50021" pt_clust_4="145.31418"></scales>
<clustering>
<clus scale="  145.314">  2  6  1 -1</clus>
<clus scale="  270.500">  1  5  2 -1</clus>
<clus scale="  416.081">  1  4  2 -1</clus>
<clus scale="  416.081">  1  3  2 -1</clus>
</clustering>
</event>
<event>
 6   2  0.3464723E-02  0.3536317E+03  0.7816531E-02  0.1061134E+00
       21   -1    0    0  504  503  0.00000000000E+00  0.00000000000E+00  0.67684377494E+03  0.67684377494E+03  0.00000000000E+00 0.  1.
       -4   -1    0    0    0  501  0.00000000000E+00  0.00000000000E+00 -0.62133468048E+03  0.62133468048E+03  0.00000000000E+00 0.  1.
  1000006    1    1    2  502    0 -0.22319153754E+02  0.86109797191E+02 -0.21881903863E+03  0.42224970511E+03  0.35000000000E+03 0.  0.
 -1000006    1    1    2    0  503 -0.63681474402E+02  0.76070112525E+01  0.46258456331E+03  0.58360746655E+03  0.35000000000E+03 0.  0.
       21    1    1    2  504  501  0.86270938459E+02 -0.14042189114E+03 -0.10083733863E+03  0.19320753400E+03  0.00000000000E+00 0.  1.
       -4    1    1    2    0  502 -0.27031030312E+00  0.46705082691E+02 -0.87419091601E+02  0.99113749769E+02  0.00000000000E+00 0.  1.
<scales pt_clust_1="13000.00000" pt_clust_2="13000.00000" pt_clust_3="153.83485" pt_clust_4="46.70586"></scales>
<clustering>
<clus scale="   46.706">  2  6  1 -1</clus>
<clus scale="  153.835">  2  5  1 -1</clus>
<clus scale="  353.632">  2  3  1 -1</clus>
<clus scale="  353.632">  1  3  2 -1</clus>
</clustering>
</event>
<event>
 6   2  0.3464723E-02  0.3697473E+03  0.7816531E-02  0.1054790E+00
       21   -1    0    0  502  503  0.00000000000E+00  0.00000000000E+00  0.70655887593E+03  0.70655887593E+03  0.00000000000E+00 0. -1.
        2   -1    0    0  501    0  0.00000000000E+00  0.00000000000E+00 -0.21426989178E+04  0.21426989178E+04  0.00000000000E+00 0.  1.
  1000006    1    1    2  501    0  0.88733870649E+02 -0.10258150115E+03 -0.90142597372E+02  0.38603413326E+03  0.35000000000E+03 0.  0.
 -1000006    1    1    2    0  504 -0.26779574081E+02  0.11497047752E+03  0.19517695082E+03  0.41776715814E+03  0.35000000000E+03 0.  0.
       21    1    1    2  504  503 -0.73022297928E+02 -0.46789058721E+02  0.24449523204E+03  0.25942126069E+03  0.00000000000E+00 0. -1.
        2    1    1    2  502    0  0.11068001360E+02  0.34400082359E+02 -0.17856696273E+04  0.17860352416E+04  0.00000000000E+00 0.  1.
<scales pt_clust_1="13000.00000" pt_clust_2="13000.00000" pt_clust_3="86.14473" pt_clust_4="36.13677"></scales>
<clustering>
<clus scale="   36.137">  2  6  1 -1</clus>
<clus scale="   86.145">  1  5  2 -1</clus>
<clus scale="  369.747">  2  3  1 -1</clus>
<clus scale="  369.747">  1  3  2 -1</clus>
</clustering>
</event>
<event>
 5   1  0.3464723E-02  0.5755011E+03  0.7816531E-02  0.9957579E-01
       21   -1    0    0  504  502  0.00000000000E+00  0.00000000000E+00  0.17022390978E+04  0.17022390978E+04  0.00000000000E+00 0.  1.
       21   -1    0    0  501  503  0.00000000000E+00  0.00000000000E+00 -0.36312658069E+03  0.36312658069E+03  0.00000000000E+00 0. -1.
  1000006    1    1    2  501    0  0.44811488620E+03  0.48457602439E+02  0.29656384987E+02  0.57143205339E+03  0.35000000000E+03 0.  0.
 -1000006    1    1    2    0  502 -0.45825331600E+03 -0.13157434973E+02  0.13315303744E+04  0.14510831670E+04  0.35000000000E+03 0.  0.
       21    1    1    2  504  503  0.10138429802E+02 -0.35300167467E+02 -0.22074242287E+02  0.42850458044E+02  0.00000000000E+00 0. -1.
<scales pt_clust_1="13000.00000" pt_clust_2="13000.00000" pt_clust_3="36.72723"></scales>
<clustering>
<clus scale="   36.727">  2  5  1 -1</clus>
<clus scale="  575.501">  2  3  1 -1</clus>
<clus scale="  575.501">  1  3  2 -1</clus>
</clustering>
</event>
<event>
 6   2  0.3464723E-02  0.5566295E+03  0.7816531E-02  0.9999710E-01
        2   -1    0    0  501    0  0.00000000000E+00  0.00000000000E+00  0.19852815980E+04  0.19852815980E+04  0.00000000000E+00 0.  1.
       21   -1    0    0  504  503  0.00000000000E+00  0.00000000000E+00 -0.43633588227E+03  0.43633588227E+03  0.00000000000E+00 0. -1.
  1000006    1    1    2  501    0 -0.11052756745E+03  0.37402617439E+03  0.10347360106E+04  0.11598666018E+04  0.35000000000E+03 0.  0.
 -1000006    1    1    2    0  503 -0.25882224741E+03 -0.39594344150E+03 -0.36678925464E+02  0.58958079022E+03  0.35000000000E+03 0.  0.
       21    1    1    2  504  502  0.19740547119E+03  0.61814680946E+02  0.26494334363E+03  0.33613234026E+03  0.00000000000E+00 0.  1.
        2    1    1    2  502    0  0.17194434367E+03 -0.39897413834E+02  0.28594528701E+03  0.33603774805E+03  0.00000000000E+00 0.  1.
<scales pt_clust_1="13000.00000" pt_clust_2="13000.00000" pt_clust_3="98.77896" pt_clust_4="385.14198"></scales>
<clustering>
<clus scale="   98.779">  5  6 -1 -1</clus>
<clus scale="  385.142">  1  5  2 -1</clus>
<clus scale="  556.630">  2  4  1 -1</clus>
<clus scale="  556.630">  2  3  1 -1</clus>
</clustering>
</event>
<event>
 4   0  0.3464723E-02  0.3679892E+03  0.7816531E-02  0.1055464E+00
       21   -1    0    0  503  502  0.00000000000E+00  0.00000000000E+00  0.42181153785E+03  0.42181153785E+03  0.00000000000E+00 0.  1.
       21   -1    0    0  501  503  0.00000000000E+00  0.00000000000E+00 -0.34617937865E+03  0.34617937865E+03  0.00000000000E+00 0.  1.
  1000006    1    1    2  501    0  0.10793156044E+03 -0.35592787732E+02 -0.65674308215E+02  0.37380366910E+03  0.35000000000E+03 0.  0.
 -1000006    1    1    2    0  502 -0.10793156044E+03  0.35592787732E+02  0.14130646742E+03  0.39418724740E+03  0.35000000000E+03 0.  0.
<scales pt_clust_1="13000.00000" pt_clust_2="13000.00000"></scales>
<clustering>
<clus scale="  367.989">  2  3  1 -1</clus>
<clus scale="  367.989">  1  3  2 -1</clus>
</clustering>
</event>
<event>
 5   1  0.3464723E-02  0.3883632E+03  0.7816531E-02  0.1047885E+00
       21   -1    0    0  501  502  0.00000000000E+00  0.00000000000E+00  0.38834765369E+03  0.38834765369E+03  0.00000000000E+00 0. -1.
       21   -1    0    0  504  503  0.00000000000E+00  0.00000000000E+00 -0.42675020126E+03  0.42675020126E+03  0.00000000000E+00 0. -1.
  1000006    1    1    2  501    0 -0.69322941788E+02 -0.13724093398E+03 -0.17459184870E+01  0.38228757820E+03  0.35000000000E+03 0.  0.
 -1000006    1    1    2    0  503  0.93044312713E+02  0.15894269180E+03 -0.18601882171E+02  0.39593693112E+03  0.35000000000E+03 0.  0.
       21    1    1    2  504  502 -0.23721370926E+02 -0.21701757823E+02 -0.18054746915E+02  0.36873345622E+02  0.00000000000E+00 0. -1.
<scales pt_clust_1="13000.00000" pt_clust_2="13000.00000" pt_clust_3="32.15073"></scales>
<clustering>
<clus scale="   32.151">  2  5  1 -1</clus>
<clus scale="  388.363">  1  3  2 -1</clus>
<clus scale="  388.363">  1  3  2 -1</clus>
</clustering>
</event>
<event>
 6   2  0.3464723E-02  0.3598956E+03  0.7816531E-02  0.1058625E+00
       21   -1    0    0  505  502  0.00000000000E+00  0.00000000000E+00  0.42191171246E+03  0.42191171246E+03  0.00000000000E+00 0. -1.
       21   -1    0    0  504  503  0.00000000000E+00  0.00000000000E+00 -0.48063154636E+03  0.48063154636E+03  0.00000000000E+00 0. -1.
  1000006    1    1    2  501    0 -0.39535152872E+02 -0.69768918513E+02  0.99004550995E+02  0.37246829586E+03  0.35000000000E+03 0.  0.
 -1000006    1    1    2    0  503  0.16917457101E+02  0.60181049294E+02 -0.14044730194E+03  0.38227399032E+03  0.35000000000E+03 0.  0.
       21    1    1    2  504  502  0.48326789955E+02  0.36463017735E+02 -0.63990769998E+02  0.88090004738E+02  0.00000000000E+00 0.  1.
       21    1    1    2  505  501 -0.25709094184E+02 -0.26875148515E+02  0.46713687047E+02  0.59710967912E+02  0.00000000000E+00 0.  1.
<scales pt_clust_1="13000.00000" pt_clust_2="13000.00000" pt_clust_3="59.34009" pt_clust_4="37.19182"></scales>
<clustering>
<clus scale="   37.192">  1  6  2 -1</clus>
<clus scale="   59.340">  2  5  1 -1</clus>
<clus scale="  359.896">  1  3  2 -1</clus>
<clus scale="  359.896">  1  3  2 -1</clus>
</clustering>
</event>
<event>
 5   1  0.3464723E-02  0.3834699E+03  0.7816531E-02  0.1049659E+00
       21   -1    0    0  501  502  0.00000000000E+00  0.00000000000E+00  0.96899357768E+03  0.96899357768E+03  0.00000000000E+00 0.  1.
       21   -1    0    0  502  503  0.00000000000E+00  0.00000000000E+00 -0.21365060997E+03  0.21365060997E+03  0.00000000000E+00 0.  1.
  1000006    1    1    2  501    0  0.89560900128E+02  0.11508180740E+03  0.38384942776E+03  0.53954180599E+03  0.35000000000E+03 0.  0.
 -1000006    1    1    2    0  504 -0.42501323432E+02 -0.16931433124E+03  0.40573219970E+03  0.56355330106E+03  0.35000000000E+03 0.  0.
       21    1    1    2  504  503 -0.47059576696E+02  0.54232523844E+02 -0.34238659752E+02  0.79549080591E+02  0.00000000000E+00 0.  1.
<scales pt_clust_1="13000.00000" pt_clust_2="13000.00000" pt_clust_3="71.80369"></scales>
<clustering>
<clus scale="   71.804">  2  5  1 -1</clus>
<clus scale="  383.470">  1  3  2 -1</clus>
<clus scale="  383.470">  1  3  2 -1</clus>
</clustering>
</event>
<event>
 5   1  0.3464723E-02  0.4471519E+03  0.7816531E-02  0.1028575E+00
       21   -1    0    0  502  503  0.00000000000E+00  0.00000000000E+00  0.17425584178E+04  0.17425584178E+04  0.00000000000E+00 0. -1.
        1   -1    0    0  501    0  0.00000000000E+00  0.00000000000E+00 -0.97328175619E+03  0.97328175619E+03  0.00000000000E+00 0. -1.
  1000006    1    1    2  501    0  0.24052702410E+03 -0.16955369057E+03  0.81226692513E+03  0.93213693252E+03  0.35000000000E+03 0.  0.
 -1000006    1    1    2    0  503 -0.24589078518E+03  0.10304738784E+03  0.81337183308E+03  0.92474579276E+03  0.35000000000E+03 0.  0.
        1    1    1    2  502    0  0.53637610840E+01  0.66506302724E+02 -0.85636209659E+03  0.85895744872E+03  0.00000000000E+00 0. -1.
<scales pt_clust_1="13000.00000" pt_clust_2="13000.00000" pt_clust_3="66.72225"></scales>
<clustering>
<clus scale="   66.722">  2  5  1 -1</clus>
<clus scale="  447.152">  1  4  2 -1</clus>
<clus scale="  447.152">  1  3  2 -1</clus>
</clustering>
</event>
<event>
 6   2  0.3464723E-02  0.4711806E+03  0.7816531E-02  0.1021588E+00
       21   -1    0    0  501  502  0.00000000000E+00  0.00000000000E+00  0.20351880360E+04  0.20351880360E+04  0.00000000000E+00 0.  1.
       21   -1    0    0  505  503  0.00000000000E+00  0.00000000000E+00 -0.22804912317E+03  0.22804912317E+03  0.00000000000E+00 0.  1.
  1000006    1    1    2  501    0 -0.29975469247E+03 -0.84365642260E+02  0.12331539033E+04  0.13191432774E+04  0.35000000000E+03 0.  0.
 -1000006    1    1    2    0  504  0.28595567675E+03  0.16386203454E+03  0.62343099316E+03  0.78726591356E+03  0.35000000000E+03 0.  0.
       21    1    1    2  504  503 -0.39152502047E+02 -0.78611154769E+02 -0.54714221828E+01  0.87991866279E+02  0.00000000000E+00 0.  1.
       21    1    1    2  505  502  0.52951517767E+02 -0.88523751127E+00 -0.43974561383E+02  0.68836101924E+02  0.00000000000E+00 0.  1.
<scales pt_clust_1="13000.00000" pt_clust_2="13000.00000" pt_clust_3="82.64098" pt_clust_4="52.95892"></scales>
<clustering>
<clus scale="   52.959">  2  6  1 -1</clus>
<clus scale="   82.641">  2  5  1 -1</clus>
<clus scale="  471.181">  2  4  1 -1</clus>
<clus scale="  471.181">  1  3  2 -1</clus>
</clustering>
</event>
<event>
 5   1  0.3464723E-02  0.3572194E+03  0.7816531E-02  0.1059690E+00
       21   -1    0    0  501  502  0.00000000000E+00  0.00000000000E+00  0.35366582479E+03  0.35366582479E+03  0.00000000000E+00 0.  1.
       21   -1    0    0  504  503  0.00000000000E+00  0.00000000000E+00 -0.64868082832E+03  0.64868082832E+03  0.00000000000E+00 0.  1.
  1000006    1    1    2  501    0 -0.73823602051E+02 -0.69755053758E+02  0.10136921390E+03  0.37827425140E+03  0.35000000000E+03 0.  0.
 -1000006    1    1    2    0  503  0.82733785201E+01  0.13063817180E+01 -0.19319670058E+03  0.39986887918E+03  0.35000000000E+03 0.  0.
       21    1    1    2  504  502  0.65550223530E+02  0.68448672040E+02 -0.20318751685E+03  0.22420352252E+03  0.00000000000E+00 0.  1.
<scales pt_clust_1="13000.00000" pt_clust_2="13000.00000" pt_clust_3="94.77369"></scales>
<clustering>
<clus scale="   94.774">  2  5  1 -1</clus>
<clus scale="  357.219">  2  4  1 -1</clus>
<clus scale="  357.219">  1  3  2 -1</clus>
</clustering>
</event>
<event>
 5   1  0.3464723E-02  0.3795787E+03  0.7816531E-02  0.1051090E+00
       21   -1    0    0  503  502  0.00000000000E+00  0.00000000000E+00  0.11412918305E+04  0.11412918305E+04  0.00000000000E+00 0.  1.
       21   -1    0    0  501  503  0.00000000000E+00  0.00000000000E+00 -0.17656680289E+03  0.17656680289E+03  0.00000000000E+00 0.  1.
  1000006    1    1    2  501    0  0.81663745825E+02 -0.13561421186E+03  0.19626920361E+03  0.43137197652E+03  0.35000000000E+03 0.  0.
 -1000006    1    1    2    0  504 -0.32375423928E+02  0.12389046699E+03  0.56521676997E+03  0.67702807397E+03  0.35000000000E+03 0.  0.
       21    1    1    2  504  502 -0.49288321897E+02  0.11723744875E+02  0.20323905403E+03  0.20945858290E+03  0.00000000000E+00 0.  1.
<scales pt_clust_1="13000.00000" pt_clust_2="13000.00000" pt_clust_3="50.66345"></scales>
<clustering>
<clus scale="   50.663">  1  5  2 -1</clus>
<clus scale="  379.579">  2  3  1 -1</clus>
<clus scale="  379.579">  1  3  2 -1</clus>
</clustering>
</event>
<event>
 6   2  0.3464723E-02  0.4204982E+03  0.7816531E-02  0.1036904E+00
       21   -1    0    0  501  503  0.00000000000E+00  0.00000000000E+00  0.28513221488E+03  0.28513221488E+03  0.00000000000E+00 0. -1.
        2   -1    0    0  504    0  0.00000000000E+00  0.00000000000E+00 -0.22829940126E+04  0.22829940126E+04  0.00000000000E+00 0. -1.
  1000006    1    1    2  501    0  0.19336655517E+03  0.86637420671E+02  0.33313210108E+02  0.41049535598E+03  0.35000000000E+03 0.  0.
 -1000006    1    1    2    0  502 -0.22746600703E+03 -0.17496355649E+02 -0.83495647173E+03  0.93364833664E+03  0.35000000000E+03 0.  0.
       21    1    1    2  504  503  0.41764057256E+02 -0.23784809735E+02 -0.29575127870E+02  0.56432630996E+02  0.00000000000E+00 0.  1.
        2    1    1    2  502    0 -0.76646053931E+01 -0.45356255288E+02 -0.11666434083E+04  0.11675499039E+04  0.00000000000E+00 0. -1.
<scales pt_clust_1="13000.00000" pt_clust_2="13000.00000" pt_clust_3="48.69879" pt_clust_4="45.99931"></scales>
<clustering>
<clus scale="   45.999">  2  6  1 -1</clus>
<clus scale="   48.699">  1  5  2 -1</clus>
<clus scale="  420.498">  1  3  2 -1</clus>
<clus scale="  420.498">  1  3  2 -1</clus>
</clustering>
</event>
<event>
 4   0  0.3464723E-02  0.5606069E+03  0.7816531E-02  0.9990682E-01
       -2   -1    0    0    0  501  0.00000000000E+00  0.00000000000E+00  0.12333391182E+04  0.12333391182E+04  0.00000000000E+00 0.  1.
        2   -1    0    0  502    0  0.00000000000E+00  0.00000000000E+00 -0.26617795830E+03  0.26617795830E+03  0.00000000000E+00 0. -1.
  1000006    1    1    2  502    0  0.40889692001E+03  0.15679090777E+03  0.63845372521E+03  0.84964889171E+03  0.35000000000E+03 0.  0.
 -1000006    1    1    2    0  501 -0.40889692001E+03 -0.15679090777E+03  0.32870743467E+03  0.64986818476E+03  0.35000000000E+03 0.  0.
<scales pt_clust_1="13000.00000" pt_clust_2="13000.00000"></scales>
<clustering>
<clus scale="  972.446">  3  4 -1 -1</clus>
<clus scale="  560.607">  2  3  1 -1</clus>
</clustering>
</event>
<event>
 5   1  0.3464723E-02  0.3637870E+03  0.7816531E-02  0.1057094E+00
       21   -1    0    0  504  502  0.00000000000E+00  0.00000000000E+00  0.11927968549E+03  0.11927968549E+03  0.00000000000E+00 0. -1.
       21   -1    0    0  501  503  0.00000000000E+00  0.00000000000E+00 -0.26855510239E+04  0.26855510239E+04  0.00000000000E+00 0. -1.
  1000006    1    1    2  501    0  0.96826630220E+02  0.71154658839E+01 -0.10985597927E+04  0.11570478141E+04  0.35000000000E+03 0.  0.
 -1000006    1    1    2    0  502 -0.73529621828E+02 -0.77015897979E+02 -0.28754165191E+03  0.46531522155E+03  0.35000000000E+03 0.  0.
       21    1    1    2  504  503 -0.23297008392E+02  0.69900432096E+02 -0.11801698939E+04  0.11824676737E+04  0.00000000000E+00 0. -1.
<scales pt_clust_1="13000.00000" pt_clust_2="13000.00000" pt_clust_3="73.68053"></scales>
<clustering>
<clus scale="   73.681">  2  5  1 -1</clus>
<clus scale="  363.787">  2  3  1 -1</clus>
<clus scale="  363.787">  1  3  2 -1</clus>
</clustering>
</event>
<event>
 5   1  0.3464723E-02  0.3806757E+03  0.7816531E-02  0.1050684E+00
       21   -1    0    0  501  502  0.00000000000E+00  0.00000000000E+00  0.36731706759E+03  0.36731706759E+03  0.00000000000E+00 0. -1.
       21   -1    0    0  504  503  0.00000000000E+00  0.00000000000E+00 -0.68386277137E+03  0.68386277137E+03  0.00000000000E+00 0. -1.
  1000006    1    1    2  501    0  0.81337428560E+02  0.30375890515E+02  0.11601776207E+03  0.37881208155E+03  0.35000000000E+03 0.  0.
 -1000006    1    1    2    0  503 -0.15969400905E+03 -0.53010084103E+02 -0.44415493647E+03  0.58998801101E+03  0.35000000000E+03 0.  0.
       21    1    1    2  504  502  0.78356580492E+02  0.22634193588E+02  0.11591470626E+02  0.82379746401E+02  0.00000000000E+00 0. -1.
<scales pt_clust_1="13000.00000" pt_clust_2="13000.00000" pt_clust_3="81.56016"></scales>
<clustering>
<clus scale="   81.560">  1  5  2 -1</clus>
<clus scale="  380.676">  1  3  2 -1</clus>
<clus scale="  380.676">  1  3  2 -1</clus>
</clustering>
</event>
<event>
 6   2  0.3464723E-02  0.7404902E+03  0.7816531E-02  0.9650389E-01
       -2   -1    0    0    0  501  0.00000000000E+00  0.00000000000E+00  0.13238819958E+04  0.13238819958E+04  0.00000000000E+00 0. -1.
       21   -1    0    0  504  503  0.00000000000E+00  0.00000000000E+00 -0.10906734670E+04  0.10906734670E+04  0.00000000000E+00 0.  1.
  1000006    1    1    2  502    0  0.65588573889E+03  0.17911586626E+01  0.91626002938E+03  0.11799244688E+04  0.35000000000E+03 0.  0.
 -1000006    1    1    2    0  501 -0.63849579761E+03 -0.40285305474E+02 -0.29764628412E+03  0.78765036651E+03  0.35000000000E+03 0.  0.
       21    1    1    2  504  502  0.48100971434E+02  0.94668389361E+02 -0.32432722226E+03  0.34126815629E+03  0.00000000000E+00 0.  1.
       -2    1    1    2    0  503 -0.65490912713E+02 -0.56174242550E+02 -0.61077994187E+02  0.10571247111E+03  0.00000000000E+00 0. -1.
<scales pt_clust_1="13000.00000" pt_clust_2="13000.00000" pt_clust_3="80.57825" pt_clust_4="86.28213"></scales>
<clustering>
<clus scale="   86.282">  2  6  1 -1</clus>
<clus scale="   80.578">  2  5  1 -1</clus>
<clus scale=" 1766.178">  3  4 -1 -1</clus>
<clus scale="  740.490">  2  3  1 -1</clus>
</clustering>
</event>
<event>
 5   1  0.3464723E-02  0.8493879E+03  0.7816531E-02  0.9491159E-01
       21   -1    0    0  501  502  0.00000000000E+00  0.00000000000E+00  0.14612466582E+04  0.14612466582E+04  0.00000000000E+00 0. -1.
       21   -1    0    0  504  503  0.00000000000E+00  0.00000000000E+00 -0.73842066028E+03  0.73842066028E+03  0.00000000000E+00 0.  1.
  1000006    1    1    2  501    0 -0.57301759143E+03  0.57047414576E+03  0.80863187363E+03  0.11958994181E+04  0.35000000000E+03 0.  0.
 -1000006    1    1    2    0  503  0.55388193160E+03 -0.52436011301E+03 -0.21412650553E+03  0.86607671868E+03  0.35000000000E+03 0.  0.
       21    1    1    2  504  502  0.19135659824E+02 -0.46114032746E+02  0.12832062985E+03  0.13769118177E+03  0.00000000000E+00 0.  1.
<scales pt_clust_1="13000.00000" pt_clust_2="13000.00000" pt_clust_3="49.92672"></scales>
<clustering>
<clus scale="   49.927">  1  5  2 -1</clus>
<clus scale="  849.388">  2  4  1 -1</clus>
<clus scale="  849.388">  1  3  2 -1</clus>
</clustering>
</event>
<event>
 6   2  0.3464723E-02  0.3512584E+03  0.7816531E-02  0.1062100E+00
       21   -1    0    0  505  502  0.00000000000E+00  0.00000000000E+00  0.30069535354E+04  0.30069535354E+04  0.00000000000E+00 0. -1.
       21   -1    0    0  504  503  0.00000000000E+00  0.00000000000E+00 -0.34925413349E+03  0.34925413349E+03  0.00000000000E+00 0. -1.
  1000006    1    1    2  501    0  0.13896805677E+02 -0.56595517627E+02  0.56836758703E+02  0.35934188590E+03  0.35000000000E+03 0.  0.
 -1000006    1    1    2    0  503 -0.23145508149E+02 -0.86770637313E+02 -0.27221600638E+02  0.36236152333E+03  0.35000000000E+03 0.  0.
       21    1    1    2  504  502 -0.33840961346E+02  0.60236736529E+01  0.29750940383E+03  0.29948846502E+03  0.00000000000E+00 0. -1.
       21    1    1    2  505  501  0.43089663818E+02  0.13734248129E+03  0.23305748400E+04  0.23350157947E+04  0.00000000000E+00 0. -1.
<scales pt_clust_1="13000.00000" pt_clust_2="13000.00000" pt_clust_3="34.37289" pt_clust_4="143.21098"></scales>
<clustering>
<clus scale="   34.373">  1  5  2 -1</clus>
<clus scale="  143.211">  1  6  2 -1</clus>
<clus scale="  351.258">  1  3  2 -1</clus>
<clus scale="  351.258">  1  3  2 -1</clus>
</clustering>
</event>
<event>
 5   1  0.3464723E-02  0.4492444E+03  0.7816531E-02  0.1027948E+00
        2   -1    0    0  503    0  0.00000000000E+00  0.00000000000E+00  0.35329926837E+04  0.35329926837E+04  0.00000000000E+00 0.  1.
       -2   -1    0    0    0  501  0.00000000000E+00  0.00000000000E+00 -0.93793373614E+02  0.93793373614E+02  0.00000000000E+00 0. -1.
  1000006    1    1    2  502    0 -0.26881984540E+03  0.66257127894E+02  0.98816436878E+03  0.10842614703E+04  0.35000000000E+03 0.  0.
 -1000006    1    1    2    0  501  0.27087646546E+03 -0.96555638542E+02  0.10799827002E+04  0.11711360654E+04  0.35000000000E+03 0.  0.
       21    1    1    2  503  502 -0.20566200608E+01  0.30298510648E+02  0.13710522411E+04  0.13713885216E+04  0.00000000000E+00 0. -1.
<scales pt_clust_1="13000.00000" pt_clust_2="13000.00000" pt_clust_3="30.36823"></scales>
<clustering>
<clus scale="   30.368">  1  5  2 -1</clus>
<clus scale="  664.201">  3  4 -1 -1</clus>
<clus scale="  449.244">  1  3  2 -1</clus>
</clustering>
</event>
<event>
 4   0  0.3464723E-02  0.8745120E+03  0.7816531E-02  0.9458016E-01
        1   -1    0    0  502    0  0.00000000000E+00  0.00000000000E+00  0.60556744721E+03  0.60556744721E+03  0.00000000000E+00 0. -1.
       -1   -1    0    0    0  501  0.00000000000E+00  0.00000000000E+00 -0.12629347448E+04  0.12629347448E+04  0.00000000000E+00 0.  1.
  1000006    1    1    2  502    0  0.74349940370E+03 -0.29913178474E+03 -0.32379026112E+03  0.93252952829E+03  0.35000000000E+03 0.  0.
 -1000006    1    1    2    0  501 -0.74349940370E+03  0.29913178474E+03 -0.33357703646E+03  0.93597266370E+03  0.35000000000E+03 0.  0.
<scales pt_clust_1="13000.00000" pt_clust_2="13000.00000"></scales>
<clustering>
<clus scale=" 1640.631">  3  4 -1 -1</clus>
<clus scale="  874.512">  1  3  2 -1</clus>
</clustering>
</event>
<event>
 6   2  0.3464723E-02  0.3674853E+03  0.7816531E-02  0.1055659E+00
       21   -1    0    0  505  502  0.00000000000E+00  0.00000000000E+00  0.73506380507E+03  0.73506380507E+03  0.00000000000E+00 0. -1.
       21   -1    0    0  501  503  0.00000000000E+00  0.00000000000E+00 -0.29895795317E+03  0.29895795317E+03  0.00000000000E+00 0. -1.
  1000006    1    1    2  501    0  0.24985679613E+02 -0.12505155167E+03 -0.51681346222E+02  0.37607597146E+03  0.35000000000E+03 0.  0.
 -1000006    1    1    2    0  504  0.18077931832E+02  0.73355053603E+02  0.37065500326E+03  0.51535706743E+03  0.35000000000E+03 0.  0.
       21    1    1    2  504  502 -0.22606362205E+02  0.26507295175E+02  0.99998432237E+02  0.10589320450E+03  0.00000000000E+00 0. -1.
       21    1    1    2  505  503 -0.20457249240E+02  0.25189202890E+02  0.17133762636E+02  0.36695514859E+02  0.00000000000E+00 0. -1.
<scales pt_clust_1="13000.00000" pt_clust_2="13000.00000" pt_clust_3="39.55411" pt_clust_4="32.44988"></scales>
<clustering>
<clus scale="   32.450">  1  6  2 -1</clus>
<clus scale="   39.554">  1  5  2 -1</clus>
<clus scale="  367.485">  1  4  2 -1</clus>
<clus scale="  367.485">  1  3  2 -1</clus>
</clustering>
</event>
<event>
 6   2  0.3464723E-02  0.5629160E+03  0.7816531E-02  0.1013786E+00
        2   -1    0    0  501    0  0.00000000000E+00  0.00000000000E+00  0.22121980264E+04  0.22121980264E+04  0.00000000000E+00 0. -1.
       21   -1    0    0  502  503  0.00000000000E+00  0.00000000000E+00 -0.35091009094E+03  0.35091009094E+03  0.00000000000E+00 0. -1.
  1000006    1    1    2  501    0  0.40360317282E+03  0.12921960175E+03  0.65781449639E+03  0.85721242306E+03  0.35000000000E+03 0.  0.
 -1000006    1    1    2    0  504 -0.27963043466E+02 -0.11723454040E+01  0.14477916644E+01  0.35112021060E+03  0.35000000000E+03 0.  0.
       21    1    1    2  504  503  0.44194170349E+02  0.27811186014E+02 -0.17938427203E+02  0.55212081385E+02  0.00000000000E+00 0.  1.
        2    1    1    2  502    0 -0.41983429970E+03 -0.15585844236E+03  0.12199640746E+04  0.12995634023E+04  0.00000000000E+00 0. -1.
<scales pt_clust_1="13000.00000" pt_clust_2="13000.00000" pt_clust_3="52.21673" pt_clust_4="440.87916"></scales>
<clustering>
<clus scale="   52.217">  2  5  1 -1</clus>
<clus scale="  350.308">  2  4  1 -1</clus>
<clus scale="  440.879">  1  6  2 -1</clus>
<clus scale="  562.916">  2  3  1 -1</clus>
</clustering>
</event>
<event>
 5   1  0.3464723E-02  0.3887470E+03  0.7816531E-02  0.1047747E+00
       21   -1    0    0  501  502  0.00000000000E+00  0.00000000000E+00  0.44628595250E+03  0.44628595250E+03  0.00000000000E+00 0.  1.
       21   -1    0    0  504  503  0.00000000000E+00  0.00000000000E+00 -0.17025756094E+04  0.17025756094E+04  0.00000000000E+00 0.  1.
  1000006    1    1    2  501    0 -0.12952155675E+02  0.12993984307E+03 -0.34852569742E+03  0.51090339881E+03  0.35000000000E+03 0.  0.
 -1000006    1    1    2    0  503  0.16222501594E+03 -0.11534773564E+03 -0.12236934445E+04  0.12882343351E+04  0.35000000000E+03 0.  0.
       21    1    1    2  504  502 -0.14927286027E+03 -0.14592107422E+02  0.31592948500E+03  0.34972382805E+03  0.00000000000E+00 0.  1.
<scales pt_clust_1="13000.00000" pt_clust_2="13000.00000" pt_clust_3="149.98439"></scales>
<clustering>
<clus scale="  149.984">  1  5  2 -1</clus>
<clus scale="  388.747">  1  3  2 -1</clus>
<clus scale="  388.747">  1  3  2 -1</clus>
</clustering>
</event>
<event>
 6   2  0.3464723E-02  0.3917815E+03  0.7816531E-02  0.1046663E+00
       21   -1    0    0  505  502  0.00000000000E+00  0.00000000000E+00  0.11364779269E+04  0.11364779269E+04  0.00000000000E+00 0.  1.
       21   -1    0    0  504  503  0.00000000000E+00  0.00000000000E+00 -0.89913336944E+03  0.89913336944E+03  0.00000000000E+00 0.  1.
  1000006    1    1    2  501    0 -0.15691673909E+03  0.79810766016E+02  0.37656910847E+03  0.54341228807E+03  0.35000000000E+03 0.  0.
 -1000006    1    1    2    0  502  0.18962562518E+03  0.46097039239E+02  0.60723927622E+03  0.72754543043E+03  0.35000000000E+03 0.  0.
       21    1    1    2  504  501 -0.41859328213E+01 -0.13556325330E+03 -0.60339430854E+03  0.61844935868E+03  0.00000000000E+00 0.  1.
       21    1    1    2  505  503 -0.28522953263E+02  0.96554480431E+01 -0.14306951865E+03  0.14620421918E+03  0.00000000000E+00 0. -1.
<scales pt_clust_1="13000.00000" pt_clust_2="13000.00000" pt_clust_3="130.62576" pt_clust_4="30.11290"></scales>
<clustering>
<clus scale="   30.113">  2  6  1 -1</clus>
<clus scale="  130.626">  2  5  1 -1</clus>
<clus scale="  391.781">  1  4  2 -1</clus>
<clus scale="  391.781">  1  3  2 -1</clus>
</clustering>
</event>
<event>
 4   0  0.3464723E-02  0.4327337E+03  0.7816531E-02  0.1033000E+00
       21   -1    0    0  501  502  0.00000000000E+00  0.00000000000E+00  0.14356598448E+04  0.14356598448E+04  0.00000000000E+00 0. -1.
       21   -1    0    0  502  503  0.00000000000E+00  0.00000000000E+00 -0.16772483749E+03  0.16772483749E+03  0.00000000000E+00 0. -1.
  1000006    1    1    2  501    0 -0.25037270192E+03 -0.45518684906E+02  0.10119849110E+04  0.11006234146E+04  0.35000000000E+03 0.  0.
 -1000006    1    1    2    0  503  0.25037270192E+03  0.45518684906E+02  0.25595009629E+03  0.50276126774E+03  0.35000000000E+03 0.  0.
<scales pt_clust_1="13000.00000" pt_clust_2="13000.00000"></scales>
<clustering>
<clus scale="  432.734">  1  3  2 -1</clus>
<clus scale="  432.734">  1  3  2 -1</clus>
</clustering>
</event>
<event>
 6   2  0.3464723E-02  0.4107382E+03  0.7816531E-02  0.1040124E+00
       21   -1    0    0  502  503  0.00000000000E+00  0.00000000000E+00  0.13895459682E+04  0.13895459682E+04  0.00000000000E+00 0. -1.
       -2   -1    0    0    0  501  0.00000000000E+00  0.00000000000E+00 -0.40736665372E+03  0.40736665372E+03  0.00000000000E+00 0. -1.
  1000006    1    1    2  502    0 -0.18732249269E+03  0.23653363128E+03  0.53019189172E+03  0.70330741290E+03  0.35000000000E+03 0.  0.
 -1000006    1    1    2    0  501  0.15621834898E+03  0.12413979567E+03 -0.11040693813E+02  0.40303443816E+03  0.35000000000E+03 0.  0.
       21    1    1    2  504  503  0.97732927758E+00 -0.32534255398E+02  0.33575135114E+03  0.33732536628E+03  0.00000000000E+00 0. -1.
       -2    1    1    2    0  504  0.30126814432E+02 -0.32813917155E+03  0.12727676546E+03  0.35324540461E+03  0.00000000000E+00 0. -1.
<scales pt_clust_1="13000.00000" pt_clust_2="13000.00000" pt_clust_3="32.54893" pt_clust_4="336.93209"></scales>
<clustering>
<clus scale="   32.549">  1  5  2 -1</clus>
<clus scale="  336.932">  2  6  1 -1</clus>
<clus scale="  410.738">  1  3  2 -1</clus>
<clus scale="  410.738">  1  3  2 -1</clus>
</clustering>
</event>
<event>
 4   0  0.3464723E-02  0.5505235E+03  0.7816531E-02  0.1001373E+00
       21   -1    0    0  503  502  0.00000000000E+00  0.00000000000E+00  0.11332707784E+04  0.11332707784E+04  0.00000000000E+00 0.  1.
       21   -1    0    0  501  503  0.00000000000E+00  0.00000000000E+00 -0.29978349777E+03  0.29978349777E+03  0.00000000000E+00 0.  1.
  1000006    1    1    2  501    0 -0.24823703001E+03 -0.34489774414E+03  0.18137045312E+03  0.57963032895E+03  0.35000000000E+03 0.  0.
 -1000006    1    1    2    0  502  0.24823703001E+03  0.34489774414E+03  0.65211682755E+03  0.85342394725E+03  0.35000000000E+03 0.  0.
<scales pt_clust_1="13000.00000" pt_clust_2="13000.00000"></scales>
<clustering>
<clus scale="  550.523">  2  3  1 -1</clus>
<clus scale="  550.523">  1  3  2 -1</clus>
</clustering>
</event>
<event>
 5   1  0.3464723E-02  0.4039477E+03  0.7816531E-02  0.1042421E+00
       21   -1    0    0  501  502  0.00000000000E+00  0.00000000000E+00  0.14973657267E+04  0.14973657267E+04  0.00000000000E+00 0.  1.
       21   -1    0    0  504  503  0.00000000000E+00  0.00000000000E+00 -0.22499032056E+03  0.22499032056E+03  0.00000000000E+00 0.  1.
  1000006    1    1    2  501    0 -0.16906213893E+03  0.84000667934E+02  0.68085944888E+03  0.78848443749E+03  0.35000000000E+03 0.  0.
 -1000006    1    1    2    0  503  0.18483694060E+03 -0.11036949951E+03  0.70515962209E+03  0.81614717647E+03  0.35000000000E+03 0.  0.
       21    1    1    2  504  502 -0.15774801669E+02  0.26368831573E+02 -0.11364366481E+03  0.11772443331E+03  0.00000000000E+00 0.  1.
<scales pt_clust_1="13000.00000" pt_clust_2="13000.00000" pt_clust_3="30.72718"></scales>
<clustering>
<clus scale="   30.727">  2  5  1 -1</clus>
<clus scale="  403.948">  1  3  2 -1</clus>
<clus scale="  403.948">  1  3  2 -1</clus>
</clustering>
</event>
<event>
 4   0  0.3464723E-02  0.5590892E+03  0.7816531E-02  0.9994118E-01
       21   -1    0    0  503  502  0.00000000000E+00  0.00000000000E+00  0.38195437159E+03  0.38195437159E+03  0.00000000000E+00 0.  1.
       21   -1    0    0  501  503  0.00000000000E+00  0.00000000000E+00 -0.82534236998E+03  0.82534236998E+03  0.00000000000E+00 0. -1.
  1000006    1    1    2  501    0 -0.38937488073E+03  0.19613248185E+03 -0.27716884266E+03  0.62402188705E+03  0.35000000000E+03 0.  0.
 -1000006    1    1    2    0  502  0.38937488073E+03 -0.19613248185E+03 -0.16621915572E+03  0.58327485452E+03  0.35000000000E+03 0.  0.
<scales pt_clust_1="13000.00000" pt_clust_2="13000.00000"></scales>
<clustering>
<clus scale="  559.089">  2  3  1 -1</clus>
<clus scale="  559.089">  1  3  2 -1</clus>
</clustering>
</event>
<event>
 6   2  0.3464723E-02  0.6844219E+03  0.7816531E-02  0.9744250E-01
       21   -1    0    0  504  502  0.00000000000E+00  0.00000000000E+00  0.61216571648E+03  0.61216571648E+03  0.00000000000E+00 0. -1.
       21   -1    0    0  501  503  0.00000000000E+00  0.00000000000E+00 -0.14717803991E+04  0.14717803991E+04  0.00000000000E+00 0.  1.
  1000006    1    1    2  501    0  0.27809666480E+03 -0.52737289886E+03 -0.60946385260E+03  0.92163231120E+03  0.35000000000E+03 0.  0.
 -1000006    1    1    2    0  505 -0.26527640694E+03  0.51622771174E+03  0.17292726903E+03  0.69947584863E+03  0.35000000000E+03 0.  0.
       21    1    1    2  504  503 -0.39766346143E+02 -0.10804124214E+02 -0.42597458604E+03  0.42796312848E+03  0.00000000000E+00 0.  1.
       21    1    1    2  505  502  0.26946088288E+02  0.21949311334E+02  0.28964869700E+01  0.34874827295E+02  0.00000000000E+00 0.  1.
<scales pt_clust_1="13000.00000" pt_clust_2="13000.00000" pt_clust_3="41.15469" pt_clust_4="34.75434"></scales>
<clustering>
<clus scale="   34.754">  1  6  2 -1</clus>
<clus scale="   41.155">  2  5  1 -1</clus>
<clus scale="  684.422">  1  4  2 -1</clus>
<clus scale="  684.422">  1  3  2 -1</clus>
</clustering>
</event>
<event>
 6   2  0.3464723E-02  0.4273950E+03  0.7816531E-02  0.1034686E+00
       21   -1    0    0  502  503  0.00000000000E+00  0.00000000000E+00  0.45194216025E+03  0.45194216025E+03  0.00000000000E+00 0.  1.
        4   -1    0    0  504    0  0.00000000000E+00  0.00000000000E+00 -0.15094379265E+04  0.15094379265E+04  0.00000000000E+00 0. -1.
  1000006    1    1    2  501    0 -0.17732108335E+03  0.22863542837E+03 -0.36412453236E+03  0.58206838153E+03  0.35000000000E+03 0.  0.
 -1000006    1    1    2    0  503  0.89036169177E+02 -0.21770471959E+03  0.20486001287E+03  0.46881809823E+03  0.35000000000E+03 0.  0.
       21    1    1    2  504  501  0.18440502876E+02 -0.26915269626E+02 -0.53044298902E+02  0.62275047421E+02  0.00000000000E+00 0. -1.
        4    1    1    2  502    0  0.69844411293E+02  0.15984560849E+02 -0.84518694787E+03  0.84821855959E+03  0.00000000000E+00 0. -1.
<scales pt_clust_1="13000.00000" pt_clust_2="13000.00000" pt_clust_3="32.62643" pt_clust_4="80.59975"></scales>
<clustering>
<clus scale="   32.626">  2  5  1 -1</clus>
<clus scale="   80.600">  2  6  1 -1</clus>
<clus scale="  427.395">  2  3  1 -1</clus>
<clus scale="  427.395">  1  3  2 -1</clus>
</clustering>
</event>
<event>
 4   0  0.3464723E-02  0.4052402E+03  0.7816531E-02  0.1041980E+00
       21   -1    0    0  501  502  0.00000000000E+00  0.00000000000E+00  0.82693966855E+03  0.82693966855E+03  0.00000000000E+00 0.  1.
       21   -1    0    0  502  503  0.00000000000E+00  0.00000000000E+00 -0.25314471729E+03  0.25314471729E+03  0.00000000000E+00 0.  1.
  1000006    1    1    2  501    0  0.19332859537E+03 -0.65906458004E+02  0.53760691401E+03  0.67323161021E+03  0.35000000000E+03 0.  0.
 -1000006    1    1    2    0  503 -0.19332859537E+03  0.65906458004E+02  0.36188037254E+02  0.40685277563E+03  0.35000000000E+03 0.  0.
<scales pt_clust_1="13000.00000" pt_clust_2="13000.00000"></scales>
<clustering>
<clus scale="  405.240">  1  3  2 -1</clus>
<clus scale="  405.240">  1  3  2 -1</clus>
</clustering>
</event>
<event>
 5   1  0.3464723E-02  0.3518803E+03  0.7816531E-02  0.1061846E+00
       21   -1    0    0  502  503  0.00000000000E+00  0.00000000000E+00  0.40542936746E+03  0.40542936746E+03  0.00000000000E+00 0. -1.
        2   -1    0    0  501    0  0.00000000000E+00  0.00000000000E+00 -0.53982536797E+03  0.53982536797E+03  0.00000000000E+00 0. -1.
  1000006    1    1    2  501    0  0.17325659777E+02 -0.28760570174E+02 -0.35518373444E+03  0.49978278691E+03  0.35000000000E+03 0.  0.
 -1000006    1    1    2    0  503  0.10543811825E+01  0.54374601609E+02  0.21177837009E+03  0.41268364040E+03  0.35000000000E+03 0.  0.
        2    1    1    2  502    0 -0.18380040959E+02 -0.25614031435E+02  0.90093638489E+01  0.32788308114E+02  0.00000000000E+00 0. -1.
<scales pt_clust_1="13000.00000" pt_clust_2="13000.00000" pt_clust_3="31.52625"></scales>
<clustering>
<clus scale="   31.526">  1  5  2 -1</clus>
<clus scale="  665.985">  3  4 -1 -1</clus>
<clus scale="  351.880">  1  3  2 -1</clus>
</clustering>
</event>
<event>
 5   1  0.3464723E-02  0.3917702E+03  0.7816531E-02  0.1046667E+00
       21   -1    0    0  501  502  0.00000000000E+00  0.00000000000E+00  0.19736046216E+03  0.19736046216E+03  0.00000000000E+00 0.  1.
       21   -1    0    0  504  503  0.00000000000E+00  0.00000000000E+00 -0.20285666152E+04  0.20285666152E+04  0.00000000000E+00 0.  1.
  1000006    1    1    2  501    0 -0.14424939580E+03  0.27701364464E+02 -0.54134661817E+03  0.66115914482E+03  0.35000000000E+03 0.  0.
 -1000006    1    1    2    0  503  0.18892173240E+03 -0.18168300381E+02 -0.13946955910E+04  0.14504128032E+04  0.35000000000E+03 0.  0.
       21    1    1    2  504  502 -0.44672336601E+02 -0.95330640834E+01  0.10483605607E+03  0.11435512940E+03  0.00000000000E+00 0.  1.
<scales pt_clust_1="13000.00000" pt_clust_2="13000.00000" pt_clust_3="45.67819"></scales>
<clustering>
<clus scale="   45.678">  1  5  2 -1</clus>
<clus scale="  391.770">  2  4  1 -1</clus>
<clus scale="  391.770">  1  3  2 -1</clus>
</clustering>
</event>
<event>
 6   2  0.3464723E-02  0.4366964E+03  0.7816531E-02  0.1031765E+00
       21   -1    0    0  505  502  0.00000000000E+00  0.00000000000E+00  0.58103144441E+03  0.58103144441E+03  0.00000000000E+00 0.  1.
       21   -1    0    0  504  503  0.00000000000E+00  0.00000000000E+00 -0.19272932402E+04  0.19272932402E+04  0.00000000000E+00 0. -1.
  1000006    1    1    2  501    0 -0.17195667853E+03 -0.37617829438E+03 -0.47501414043E+03  0.72056758327E+03  0.35000000000E+03 0.  0.
 -1000006    1    1    2    0  502  0.18494716856E+03  0.15411765504E+03  0.34488775535E+03  0.54717937693E+03  0.35000000000E+03 0.  0.
       21    1    1    2  504  501  0.60592555863E+01  0.57941993446E+02 -0.13707068897E+03  0.14893744646E+03  0.00000000000E+00 0. -1.
       21    1    1    2  505  503 -0.19049745626E+02  0.16411864589E+03 -0.10790647217E+04  0.10916402779E+04  0.00000000000E+00 0. -1.
<scales pt_clust_1="13000.00000" pt_clust_2="13000.00000" pt_clust_3="58.25795" pt_clust_4="199.95491"></scales>
<clustering>
<clus scale="   58.258">  2  5  1 -1</clus>
<clus scale="  199.955">  2  6  1 -1</clus>
<clus scale="  436.696">  1  4  2 -1</clus>
<clus scale="  436.696">  1  3  2 -1</clus>
</clustering>
</event>
<event>
 5   1  0.3464723E-02  0.3507630E+03  0.7816531E-02  0.1062302E+00
       21   -1    0    0  501  502  0.00000000000E+00  0.00000000000E+00  0.11193870142E+04  0.11193870142E+04  0.00000000000E+00 0. -1.
       21   -1    0    0  504  503  0.00000000000E+00  0.00000000000E+00 -0.79954838010E+03  0.79954838010E+03  0.00000000000E+00 0.  1.
  1000006    1    1    2  501    0 -0.52224194740E+02  0.44279959837E+02  0.62975954996E+03  0.72373004091E+03  0.35000000000E+03 0.  0.
 -1000006    1    1    2    0  503 -0.24577798121E+02  0.48243331267E+02  0.36563060011E+03  0.50903558118E+03  0.35000000000E+03 0.  0.
       21    1    1    2  504  502  0.76801992861E+02 -0.92523291103E+02 -0.67555151599E+03  0.68616977219E+03  0.00000000000E+00 0.  1.
<scales pt_clust_1="13000.00000" pt_clust_2="13000.00000" pt_clust_3="120.24602"></scales>
<clustering>
<clus scale="  120.246">  2  5  1 -1</clus>
<clus scale="  350.763">  2  4  1 -1</clus>
<clus scale="  350.763">  1  3  2 -1</clus>
</clustering>
</event>
<event>
 5   1  0.3464723E-02  0.3606744E+03  0.7816531E-02  0.1058317E+00
       -2   -1    0    0    0  501  0.00000000000E+00  0.00000000000E+00  0.34978475009E+03  0.34978475009E+03  0.00000000000E+00 0.  1.
       21   -1    0    0  502  503  0.00000000000E+00  0.00000000000E+00 -0.84925464384E+03  0.84925464384E+03  0.00000000000E+00 0.  1.
  1000006    1    1    2  502    0  0.48092487279E+02 -0.18277819827E+02 -0.64220045134E+03  0.73319055213E+03  0.35000000000E+03 0.  0.
 -1000006    1    1    2    0  501 -0.93480603730E+02 -0.45336456958E+01  0.17834049459E+03  0.40381246789E+03  0.35000000000E+03 0.  0.
       -2    1    1    2    0  503  0.45388116450E+02  0.22811465523E+02 -0.35609936999E+02  0.62036373905E+02  0.00000000000E+00 0.  1.
<scales pt_clust_1="13000.00000" pt_clust_2="13000.00000" pt_clust_3="50.79807"></scales>
<clustering>
<clus scale="   50.798">  2  5  1 -1</clus>
<clus scale="  841.148">  3  4 -1 -1</clus>
<clus scale="  360.674">  2  3  1 -1</clus>
</clustering>
</event>
<event>
 6   2  0.3464723E-02  0.3997779E+03  0.7816531E-02  0.1043857E+00
       21   -1    0    0  505  502  0.00000000000E+00  0.00000000000E+00  0.37953510284E+03  0.37953510284E+03  0.00000000000E+00 0.  1.
       21   -1    0    0  504  503  0.00000000000E+00  0.00000000000E+00 -0.69242500968E+03  0.69242500968E+03  0.00000000000E+00 0.  1.
  1000006    1    1    2  501    0 -0.24565494322E+03  0.10978974994E+03 -0.17102726255E+03  0.47344531348E+03  0.35000000000E+03 0.  0.
 -1000006    1    1    2    0  503  0.14390341178E+03  0.14285695277E+02 -0.17946192166E+03  0.41906903290E+03  0.35000000000E+03 0.  0.
       21    1    1    2  504  502  0.26294863510E+02 -0.17729889146E+02  0.37418043334E+02  0.49049758236E+02  0.00000000000E+00 0.  1.
       21    1    1    2  505  501  0.75456667932E+02 -0.10634555607E+03  0.18123402250E+00  0.13039600790E+03  0.00000000000E+00 0.  1.
<scales pt_clust_1="13000.00000" pt_clust_2="13000.00000" pt_clust_3="31.71386" pt_clust_4="136.17440"></scales>
<clustering>
<clus scale="   31.714">  1  5  2 -1</clus>
<clus scale="  136.174">  1  6  2 -1</clus>
<clus scale="  399.778">  1  3  2 -1</clus>
<clus scale="  399.778">  1  3  2 -1</clus>
</clustering>
</event>
<event>
 5   1  0.3464723E-02  0.3513072E+03  0.7816531E-02  0.1062080E+00
       21   -1    0    0  504  502  0.00000000000E+00  0.00000000000E+00  0.37658588711E+03  0.37658588711E+03  0.00000000000E+00 0. -1.
       21   -1    0    0  502  503  0.00000000000E+00  0.00000000000E+00 -0.49192217175E+03  0.49192217175E+03  0.00000000000E+00 0. -1.
  1000006    1    1    2  501    0  0.15651286577E+02  0.39797247707E+02 -0.52024283502E+02  0.35642013098E+03  0.35000000000E+03 0.  0.
 -1000006    1    1    2    0  503 -0.29434539809E+02 -0.39144903346E+01 -0.17610075230E+03  0.39292898892E+03  0.35000000000E+03 0.  0.
       21    1    1    2  504  501  0.13783253232E+02 -0.35882757373E+02  0.11278875116E+03  0.11915893896E+03  0.00000000000E+00 0. -1.
<scales pt_clust_1="13000.00000" pt_clust_2="13000.00000" pt_clust_3="38.43892"></scales>
<clustering>
<clus scale="   38.439">  1  5  2 -1</clus>
<clus scale="  351.307">  1  3  2 -1</clus>
<clus scale="  351.307">  1  3  2 -1</clus>
</clustering>
</event>
<event>
 6   2  0.3464723E-02  0.4114452E+03  0.7816531E-02  0.1039887E+00
       21   -1    0    0  505  502  0.00000000000E+00  0.00000000000E+00  0.44716730936E+03  0.44716730936E+03  0.00000000000E+00 0. -1.
       21   -1    0    0  501  503  0.00000000000E+00  0.00000000000E+00 -0.61987083152E+03  0.61987083152E+03  0.00000000000E+00 0. -1.
  1000006    1    1    2  501    0  0.43683051605E+02 -0.22935424931E+03 -0.36648005731E+03  0.55795986691E+03  0.35000000000E+03 0.  0.
 -1000006    1    1    2    0  502 -0.18678196088E+02  0.16592020870E+03  0.14156872807E+03  0.41281968876E+03  0.35000000000E+03 0.  0.
       21    1    1    2  504  503 -0.25930341493E+01  0.43451886225E+02  0.10346157778E+02  0.44741850916E+02  0.00000000000E+00 0.  1.
       21    1    1    2  505  504 -0.22411821368E+02  0.19982154388E+02  0.41861649297E+02  0.51516734299E+02  0.00000000000E+00 0.  1.
<scales pt_clust_1="13000.00000" pt_clust_2="13000.00000" pt_clust_3="45.01648" pt_clust_4="30.02626"></scales>
<clustering>
<clus scale="   30.026">  1  6  2 -1</clus>
<clus scale="   45.016">  1  5  2 -1</clus>
<clus scale="  411.445">  2  3  1 -1</clus>
<clus scale="  411.445">  1  3  2 -1</clus>
</clustering>
</event>
<event>
 6   2  0.3464723E-02  0.4321573E+03  0.7816531E-02  0.1033181E+00
       21   -1    0    0  504  502  0.00000000000E+00  0.00000000000E+00  0.10714439375E+04  0.10714439375E+04  0.00000000000E+00 0. -1.
       21   -1    0    0  505  503  0.00000000000E+00  0.00000000000E+00 -0.10198261838E+04  0.10198261838E+04  0.00000000000E+00 0. -1.
  1000006    1    1    2  501    0  0.21220459027E+03  0.13921240596E+03 -0.23992328669E+02  0.43299712925E+03  0.35000000000E+03 0.  0.
 -1000006    1    1    2    0  503 -0.17515371116E+03 -0.13237686388E+03 -0.67391896812E+03  0.79048670591E+03  0.35000000000E+03 0.  0.
       21    1    1    2  504  501 -0.12822684721E+02  0.44605263317E+02  0.79415165751E+03  0.79550669758E+03  0.00000000000E+00 0. -1.
       21    1    1    2  505  502 -0.24228194392E+02 -0.51440805394E+02 -0.44622606986E+02  0.72279588525E+02  0.00000000000E+00 0. -1.
<scales pt_clust_1="13000.00000" pt_clust_2="13000.00000" pt_clust_3="46.41175" pt_clust_4="55.13793"></scales>
<clustering>
<clus scale="   46.412">  1  5  2 -1</clus>
<clus scale="   55.138">  2  6  1 -1</clus>
<clus scale="  432.157">  2  4  1 -1</clus>
<clus scale="  432.157">  1  3  2 -1</clus>
</clustering>
</event>
<event>
 6   2  0.3464723E-02  0.4568817E+03  0.7816531E-02  0.1025690E+00
       21   -1    0    0  504  502  0.00000000000E+00  0.00000000000E+00  0.30901130523E+03  0.30901130523E+03  0.00000000000E+00 0.  1.
       21   -1    0    0  505  503  0.00000000000E+00  0.00000000000E+00 -0.23642244370E+04  0.23642244370E+04  0.00000000000E+00 0.  1.
  1000006    1    1    2  501    0  0.32013642587E+03  0.13992427974E+03 -0.17000779376E+03  0.52294243007E+03  0.35000000000E+03 0.  0.
 -1000006    1    1    2    0  503 -0.24170697734E+03 -0.15296308105E+03 -0.19587095372E+04  0.20101897966E+04  0.35000000000E+03 0.  0.
       21    1    1    2  504  501 -0.49068412270E+02 -0.36746104907E+02  0.41599660172E+02  0.74084526285E+02  0.00000000000E+00 0. -1.
       21    1    1    2  505  502 -0.29361036252E+02  0.49784906210E+02  0.31904539037E+02  0.66018989294E+02  0.00000000000E+00 0. -1.
<scales pt_clust_1="13000.00000" pt_clust_2="13000.00000" pt_clust_3="61.24004" pt_clust_4="57.79799"></scales>
<clustering>
<clus scale="   57.798">  1  6  2 -1</clus>
<clus scale="   61.240">  1  5  2 -1</clus>
<clus scale="  456.882">  1  3  2 -1</clus>
<clus scale="  456.882">  1  3  2 -1</clus>
</clustering>
</event>
<event>
 6   2  0.3464723E-02  0.6042465E+03  0.7816531E-02  0.9896635E-01
       -1   -1    0    0    0  501  0.00000000000E+00  0.00000000000E+00  0.90931056810E+03  0.90931056810E+03  0.00000000000E+00 0. -1.
        1   -1    0    0  503    0  0.00000000000E+00  0.00000000000E+00 -0.18715527210E+04  0.18715527210E+04  0.00000000000E+00 0.  1.
  1000006    1    1    2  502    0  0.51971807821E+03 -0.12592060195E+03  0.15600458596E+03  0.65787560348E+03  0.35000000000E+03 0.  0.
 -1000006    1    1    2    0  501 -0.45915784676E+03  0.71655846175E+02  0.32878880215E+03  0.66825336883E+03  0.35000000000E+03 0.  0.
       21    1    1    2  503  504 -0.15678160145E+02  0.30319057603E+02 -0.82917269605E+02  0.89667851308E+02  0.00000000000E+00 0. -1.
       21    1    1    2  504  502 -0.44882071302E+02  0.23945698171E+02 -0.13641182714E+04  0.13650664655E+04  0.00000000000E+00 0.  1.
<scales pt_clust_1="13000.00000" pt_clust_2="13000.00000" pt_clust_3="34.13283" pt_clust_4="73.85175"></scales>
<clustering>
<clus scale="   34.133">  2  5  1 -1</clus>
<clus scale="   73.852">  2  6  1 -1</clus>
<clus scale=" 1072.139">  3  4 -1 -1</clus>
<clus scale="  604.246">  2  3  1 -1</clus>
</clustering>
</event>
<event>
 6   2  0.3464723E-02  0.3717288E+03  0.7816531E-02  0.1054034E+00
       21   -1    0    0  502  503  0.00000000000E+00  0.00000000000E+00  0.42523654705E+03  0.42523654705E+03  0.00000000000E+00 0. -1.
        1   -1    0    0  501    0  0.00000000000E+00  0.00000000000E+00 -0.84901697510E+03  0.84901697510E+03  0.00000000000E+00 0. -1.
  1000006    1    1    2  501    0  0.10040778830E+03 -0.51023472942E+02 -0.25319491694E+03  0.44642220454E+03  0.35000000000E+03 0.  0.
 -1000006    1    1    2    0  504 -0.11241054679E+03  0.76404125769E+02 -0.36988397877E+03  0.52705585967E+03  0.35000000000E+03 0.  0.
       21    1    1    2  504  503  0.36326062664E+02 -0.82897324337E+02  0.21762371140E+03  0.23569393071E+03  0.00000000000E+00 0. -1.
        1    1    1    2  502    0 -0.24323304173E+02  0.57516671510E+02 -0.18325243750E+02  0.65081527226E+02  0.00000000000E+00 0. -1.
<scales pt_clust_1="13000.00000" pt_clust_2="13000.00000" pt_clust_3="55.28949" pt_clust_4="62.44830"></scales>
<clustering>
<clus scale="   62.448">  1  6  2 -1</clus>
<clus scale="   55.289">  1  5  2 -1</clus>
<clus scale="  437.200">  3  4 -1 -1</clus>
<clus scale="  371.729">  1  3  2 -1</clus>
</clustering>
</event>
<event>
 4   0  0.3464723E-02  0.4346010E+03  0.7816531E-02  0.1032416E+00
       21   -1    0    0  503  502  0.00000000000E+00  0.00000000000E+00  0.17215324456E+03  0.17215324456E+03  0.00000000000E+00 0.  1.
       21   -1    0    0  501  503  0.00000000000E+00  0.00000000000E+00 -0.11746748525E+04  0.11746748525E+04  0.00000000000E+00 0. -1.
  1000006    1    1    2  501    0 -0.11808574601E+03  0.22898424283E+03 -0.67425927767E+03  0.80218676154E+03  0.35000000000E+03 0.  0.
 -1000006    1    1    2    0  502  0.11808574601E+03 -0.22898424283E+03 -0.32826233025E+03  0.54464133550E+03  0.35000000000E+03 0.  0.
<scales pt_clust_1="13000.00000" pt_clust_2="13000.00000"></scales>
<clustering>
<clus scale="  434.601">  2  3  1 -1</clus>
<clus scale="  434.601">  1  3  2 -1</clus>
</clustering>
</event>
<event>
 5   1  0.3464723E-02  0.4216134E+03  0.7816531E-02  0.1036542E+00
       21   -1    0    0  503  502  0.00000000000E+00  0.00000000000E+00  0.85774853306E+03  0.85774853306E+03  0.00000000000E+00 0. -1.
       21   -1    0    0  501  503  0.00000000000E+00  0.00000000000E+00 -0.53648271418E+03  0.53648271418E+03  0.00000000000E+00 0. -1.
  1000006    1    1    2  501    0 -0.17565550671E+03  0.16279366329E+03 -0.36073070301E+03  0.55676141563E+03  0.35000000000E+03 0.  0.
 -1000006    1    1    2    0  504  0.14885838826E+03 -0.14905818794E+03  0.46734360921E+03  0.62071508135E+03  0.35000000000E+03 0.  0.
       21    1    1    2  504  502  0.26797118453E+02 -0.13735475352E+02  0.21465291267E+03  0.21675475025E+03  0.00000000000E+00 0.  1.
<scales pt_clust_1="13000.00000" pt_clust_2="13000.00000" pt_clust_3="30.11227"></scales>
<clustering>
<clus scale="   30.112">  1  5  2 -1</clus>
<clus scale="  421.613">  2  3  1 -1</clus>
<clus scale="  421.613">  1  3  2 -1</clus>
</clustering>
</event>
<event>
 4   0  0.3464723E-02  0.3580868E+03  0.7816531E-02  0.1059344E+00
       21   -1    0    0  503  502  0.00000000000E+00  0.00000000000E+00  0.16200486277E+04  0.16200486277E+04  0.00000000000E+00 0. -1.
       21   -1    0    0  501  503  0.00000000000E+00  0.00000000000E+00 -0.79149672644E+02  0.79149672644E+02  0.00000000000E+00 0. -1.
  1000006    1    1    2  501    0 -0.60363586687E+02 -0.45633619159E+02  0.76959812264E+03  0.84882710853E+03  0.35000000000E+03 0.  0.
 -1000006    1    1    2    0  502  0.60363586687E+02  0.45633619159E+02  0.77130083244E+03  0.85037119184E+03  0.35000000000E+03 0.  0.
<scales pt_clust_1="13000.00000" pt_clust_2="13000.00000"></scales>
<clustering>
<clus scale="  358.087">  2  3  1 -1</clus>
<clus scale="  358.087">  1  3  2 -1</clus>
</clustering>
</event>
<event>
 6   2  0.3464723E-02  0.3522919E+03  0.7816531E-02  0.1061678E+00
       21   -1    0    0  505  502  0.00000000000E+00  0.00000000000E+00  0.10262581485E+03  0.10262581485E+03  0.00000000000E+00 0. -1.
       21   -1    0    0  501  503  0.00000000000E+00  0.00000000000E+00 -0.21546657108E+04  0.21546657108E+04  0.00000000000E+00 0. -1.
  1000006    1    1    2  501    0 -0.18799333534E+02  0.20703385325E+02 -0.10235295319E+04  0.10820789009E+04  0.35000000000E+03 0.  0.
 -1000006    1    1    2    0  502 -0.48990485002E+01  0.11151846967E+03 -0.92250141429E+03  0.99295983258E+03  0.35000000000E+03 0.  0.
       21    1    1    2  504  503  0.29082690432E+02 -0.61287460332E+02 -0.83615177873E+02  0.10767290117E+03  0.00000000000E+00 0. -1.
       21    1    1    2  505  504 -0.53843083974E+01 -0.70934394660E+02 -0.22393771904E+02  0.74579891008E+02  0.00000000000E+00 0. -1.
<scales pt_clust_1="13000.00000" pt_clust_2="13000.00000" pt_clust_3="61.24884" pt_clust_4="148.25041"></scales>
<clustering>
<clus scale="   61.249">  5  6 -1 -1</clus>
<clus scale="  148.250">  1  5  2 -1</clus>
<clus scale="  352.292">  1  4  2 -1</clus>
<clus scale="  352.292">  1  3  2 -1</clus>
</clustering>
</event>
<event>
 6   2  0.3464723E-02  0.3564467E+03  0.7816531E-02  0.1060000E+00
        2   -1    0    0  501    0  0.00000000000E+00  0.00000000000E+00  0.22130000689E+04  0.22130000689E+04  0.00000000000E+00 0. -1.
        2   -1    0    0  503    0  0.00000000000E+00  0.00000000000E+00 -0.15262228520E+04  0.15262228520E+04  0.00000000000E+00 0. -1.
  1000006    1    1    2  501    0 -0.69680119893E+01 -0.96778299488E+01  0.12624980184E+04  0.13101692486E+04  0.35000000000E+03 0.  0.
 -1000006    1    1    2    0  502  0.19990101371E+03 -0.18159499920E+03  0.61764059123E+03  0.75955056379E+03  0.35000000000E+03 0.  0.
        2    1    1    2  502    0  0.14383387203E+01  0.41102441876E+02 -0.13676863478E+04  0.13683045807E+04  0.00000000000E+00 0. -1.
        2    1    1    2  503    0 -0.19437134045E+03  0.15017038727E+03  0.17432495498E+03  0.30119852777E+03  0.00000000000E+00 0. -1.
<scales pt_clust_1="13000.00000" pt_clust_2="13000.00000" pt_clust_3="41.12760" pt_clust_4="255.59411"></scales>
<clustering>
<clus scale="   41.128">  2  5  1 -1</clus>
<clus scale="  255.594">  2  6  1 -1</clus>
<clus scale="  554.536">  3  4 -1 -1</clus>
<clus scale="  356.447">  1  3  2 -1</clus>
</clustering>
</event>
<event>
 6   2  0.3464723E-02  0.3515049E+03  0.7816531E-02  0.1061999E+00
       21   -1    0    0  505  502  0.00000000000E+00  0.00000000000E+00  0.65827991050E+03  0.65827991050E+03  0.00000000000E+00 0. -1.
       21   -1    0    0  501  503  0.00000000000E+00  0.00000000000E+00 -0.35187747546E+03  0.35187747546E+03  0.00000000000E+00 0. -1.
  1000006    1    1    2  501    0  0.37856024585E+02  0.34378406952E+02  0.55632050670E+01  0.35375966801E+03  0.35000000000E+03 0.  0.
 -1000006    1    1    2    0  502 -0.30511299133E+01 -0.32755905976E+02  0.16040040494E+03  0.38640723166E+03  0.35000000000E+03 0.  0.
       21    1    1    2  504  503 -0.19758639537E+02 -0.38560300815E+02 -0.55287038646E+02  0.70242133207E+02  0.00000000000E+00 0. -1.
       21    1    1    2  505  504 -0.15046255135E+02  0.36937799839E+02  0.19572586367E+03  0.19974835309E+03  0.00000000000E+00 0. -1.
<scales pt_clust_1="13000.00000" pt_clust_2="13000.00000" pt_clust_3="42.90830" pt_clust_4="39.88472"></scales>
<clustering>
<clus scale="   39.885">  1  6  2 -1</clus>
<clus scale="   42.908">  2  5  1 -1</clus>
<clus scale="  351.505">  2  3  1 -1</clus>
<clus scale="  351.505">  1  3  2 -1</clus>
</clustering>
</event>
<event>
 6   2  0.3464723E-02  0.4101527E+03  0.7816531E-02  0.1040320E+00
       21   -1    0    0  505  502  0.00000000000E+00  0.00000000000E+00  0.12764089766E+04  0.12764089766E+04  0.00000000000E+00 0. -1.
       21   -1    0    0  502  503  0.00000000000E+00  0.00000000000E+00 -0.31148514447E+03  0.31148514447E+03  0.00000000000E+00 0. -1.
  1000006    1    1    2  501    0 -0.13281756370E+03 -0.28892575397E+03  0.49449650785E+03  0.68421151175E+03  0.35000000000E+03 0.  0.
 -1000006    1    1    2    0  503 -0.23764976250E+01  0.18489817707E+03  0.73108883688E+01  0.39591215277E+03  0.35000000000E+03 0.  0.
       21    1    1    2  504  501  0.10311153021E+03  0.43837190665E+02  0.14951819433E+03  0.18684051323E+03  0.00000000000E+00 0. -1.
       21    1    1    2  505  504  0.32082531109E+02  0.60190386238E+02  0.31359824161E+03  0.32092994335E+03  0.00000000000E+00 0. -1.
<scales pt_clust_1="13000.00000" pt_clust_2="13000.00000" pt_clust_3="121.58178" pt_clust_4="68.20683"></scales>
<clustering>
<clus scale="   68.207">  1  6  2 -1</clus>
<clus scale="  121.582">  1  5  2 -1</clus>
<clus scale="  410.153">  1  3  2 -1</clus>
<clus scale="  410.153">  1  3  2 -1</clus>
</clustering>
</event>
<event>
 5   1  0.3464723E-02  0.6213151E+03  0.7816531E-02  0.9862145E-01
       21   -1    0    0  503  502  0.00000000000E+00  0.00000000000E+00  0.17536511292E+04  0.17536511292E+04  0.00000000000E+00 0. -1.
       21   -1    0    0  504  503  0.00000000000E+00  0.00000000000E+00 -0.39010065458E+03  0.39010065458E+03  0.00000000000E+00 0.  1.
  1000006    1    1    2  501    0  0.51617882977E+03 -0.17857446647E+03  0.79838803905E+03  0.10287141903E+04  0.35000000000E+03 0.  0.
 -1000006    1    1    2    0  502 -0.45510458525E+03  0.16163884642E+03  0.72751194961E+03  0.94075551394E+03  0.35000000000E+03 0.  0.
       21    1    1    2  504  501 -0.61074244524E+02  0.16935620056E+02 -0.16234951400E+03  0.17428207959E+03  0.00000000000E+00 0.  1.
<scales pt_clust_1="13000.00000" pt_clust_2="13000.00000" pt_clust_3="63.37885"></scales>
<clustering>
<clus scale="   63.379">  2  5  1 -1</clus>
<clus scale="  621.315">  2  3  1 -1</clus>
<clus scale="  621.315">  1  3  2 -1</clus>
</clustering>
</event>
<event>
 5   1  0.3464723E-02  0.3545082E+03  0.7816531E-02  0.1060780E+00
       21   -1    0    0  503  502  0.00000000000E+00  0.00000000000E+00  0.41266749196E+03  0.41266749196E+03  0.00000000000E+00 0. -1.
       21   -1    0    0  501  503  0.00000000000E+00  0.00000000000E+00 -0.42215844968E+03  0.42215844968E+03  0.00000000000E+00 0. -1.
  1000006    1    1    2  501    0  0.22413100047E+02 -0.38790406587E+02 -0.17450786623E+03  0.39364963873E+03  0.35000000000E+03 0.  0.
 -1000006    1    1    2    0  504 -0.57875511817E+02  0.60766682651E+02  0.11904515105E+03  0.37909617853E+03  0.35000000000E+03 0.  0.
       21    1    1    2  504  502  0.35462411770E+02 -0.21976276065E+02  0.45971757466E+02  0.62080124378E+02  0.00000000000E+00 0.  1.
<scales pt_clust_1="13000.00000" pt_clust_2="13000.00000" pt_clust_3="41.71977"></scales>
<clustering>
<clus scale="   41.720">  1  5  2 -1</clus>
<clus scale="  354.508">  2  3  1 -1</clus>
<clus scale="  354.508">  1  3  2 -1</clus>
</clustering>
</event>
<event>
 5   1  0.3464723E-02  0.3716877E+03  0.7816531E-02  0.1054049E+00
       21   -1    0    0  504  502  0.00000000000E+00  0.00000000000E+00  0.19356001815E+03  0.19356001815E+03  0.00000000000E+00 0.  1.
       21   -1    0    0  502  503  0.00000000000E+00  0.00000000000E+00 -0.14032268145E+04  0.14032268145E+04  0.00000000000E+00 0.  1.
  1000006    1    1    2  501    0  0.88531600591E+02  0.11867463797E+03 -0.55408163571E+03  0.67188389847E+03  0.35000000000E+03 0.  0.
 -1000006    1    1    2    0  503 -0.34128663683E+02 -0.10590347141E+03 -0.73857790046E+03  0.82485006273E+03  0.35000000000E+03 0.  0.
       21    1    1    2  504  501 -0.54402936908E+02 -0.12771166553E+02  0.82992739764E+02  0.10005287149E+03  0.00000000000E+00 0.  1.
<scales pt_clust_1="13000.00000" pt_clust_2="13000.00000" pt_clust_3="55.88186"></scales>
<clustering>
<clus scale="   55.882">  1  5  2 -1</clus>
<clus scale="  371.688">  1  3  2 -1</clus>
<clus scale="  371.688">  1  3  2 -1</clus>
</clustering>
</event>
<event>
 6   2  0.3464723E-02  0.5806409E+03  0.7816531E-02  0.1001134E+00
       21   -1    0    0  501  503  0.00000000000E+00  0.00000000000E+00  0.10065737260E+04  0.10065737260E+04  0.00000000000E+00 0.  1.
        2   -1    0    0  504    0  0.00000000000E+00  0.00000000000E+00 -0.13137150833E+04  0.13137150833E+04  0.00000000000E+00 0.  1.
  1000006    1    1    2  501    0 -0.28345260321E+03  0.13869248606E+03  0.64876460745E+03  0.80185815444E+03  0.35000000000E+03 0.  0.
 -1000006    1    1    2    0  502 -0.31364232410E+03 -0.16757274451E+03 -0.34189962443E+03  0.60485327589E+03  0.35000000000E+03 0.  0.
       21    1    1    2  504  503 -0.50357385577E+01  0.71829253936E+02 -0.52194713456E+02  0.88933056265E+02  0.00000000000E+00 0.  1.
        2    1    1    2  502    0  0.60213066587E+03 -0.42948995484E+02 -0.56181162684E+03  0.82464432275E+03  0.00000000000E+00 0.  1.
<scales pt_clust_1="13000.00000" pt_clust_2="13000.00000" pt_clust_3="72.00556" pt_clust_4="463.29692"></scales>
<clustering>
<clus scale="   72.006">  2  5  1 -1</clus>
<clus scale="  472.761">  1  3  2 -1</clus>
<clus scale="  463.297">  2  6  1 -1</clus>
<clus scale="  580.641">  1  3  2 -1</clus>
</clustering>
</event>
<event>
 5   1  0.3464723E-02  0.3819801E+03  0.7816531E-02  0.1050204E+00
       21   -1    0    0  504  502  0.00000000000E+00  0.00000000000E+00  0.16213492981E+03  0.16213492981E+03  0.00000000000E+00 0. -1.
       21   -1    0    0  502  503  0.00000000000E+00  0.00000000000E+00 -0.12631115267E+04  0.12631115267E+04  0.00000000000E+00 0. -1.
  1000006    1    1    2  501    0 -0.55052207308E+02  0.14552656663E+03 -0.32398553174E+03  0.50167255446E+03  0.35000000000E+03 0.  0.
 -1000006    1    1    2    0  503 -0.15021283174E+02 -0.15646342853E+03 -0.75891116373E+03  0.85038379444E+03  0.35000000000E+03 0.  0.
       21    1    1    2  504  501  0.70073490482E+02  0.10936861895E+02 -0.18079901431E+02  0.73190107612E+02  0.00000000000E+00 0. -1.
<scales pt_clust_1="13000.00000" pt_clust_2="13000.00000" pt_clust_3="70.92185"></scales>
<clustering>
<clus scale="   70.922">  1  5  2 -1</clus>
<clus scale="  381.980">  1  3  2 -1</clus>
<clus scale="  381.980">  1  3  2 -1</clus>
</clustering>
</event>
<event>
 6   2  0.3464723E-02  0.3823683E+03  0.7816531E-02  0.1050062E+00
       21   -1    0    0  501  502  0.00000000000E+00  0.00000000000E+00  0.96570145914E+03  0.96570145914E+03  0.00000000000E+00 0. -1.
       21   -1    0    0  505  503  0.00000000000E+00  0.00000000000E+00 -0.70587639520E+03  0.70587639520E+03  0.00000000000E+00 0. -1.
  1000006    1    1    2  501    0 -0.11164155792E+03  0.24364435210E+03  0.31180616660E+03  0.53995323251E+03  0.35000000000E+03 0.  0.
 -1000006    1    1    2    0  503  0.19766332412E+03  0.64360414494E+02  0.50153449230E+02  0.41015658123E+03  0.35000000000E+03 0.  0.
       21    1    1    2  504  502  0.78584302203E+02 -0.13690445469E+03  0.25065851298E+03  0.29622290998E+03  0.00000000000E+00 0. -1.
       21    1    1    2  505  504 -0.16460606841E+03 -0.17110031190E+03 -0.35279306488E+03  0.42524513062E+03  0.00000000000E+00 0. -1.
<scales pt_clust_1="13000.00000" pt_clust_2="13000.00000" pt_clust_3="157.85538" pt_clust_4="239.86764"></scales>
<clustering>
<clus scale="  157.855">  1  5  2 -1</clus>
<clus scale="  239.868">  2  6  1 -1</clus>
<clus scale="  382.368">  1  3  2 -1</clus>
<clus scale="  382.368">  1  3  2 -1</clus>
</clustering>
</event>
<event>
 6   2  0.3464723E-02  0.4484801E+03  0.7816531E-02  0.1028176E+00
       21   -1    0    0  501  502  0.00000000000E+00  0.00000000000E+00  0.55251930991E+03  0.55251930991E+03  0.00000000000E+00 0.  1.
       21   -1    0    0  505  503  0.00000000000E+00  0.00000000000E+00 -0.17833065850E+04  0.17833065850E+04  0.00000000000E+00 0.  1.
  1000006    1    1    2  501    0 -0.19863873226E+03 -0.17989049767E+03 -0.64097294836E+03  0.77792304095E+03  0.35000000000E+03 0.  0.
 -1000006    1    1    2    0  503  0.26036091860E+03  0.12552573138E+03 -0.93124454304E+03  0.10359830675E+04  0.35000000000E+03 0.  0.
       21    1    1    2  504  502 -0.82224319537E+02  0.29590248694E+02  0.42420789423E+03  0.43311517991E+03  0.00000000000E+00 0.  1.
       21    1    1    2  505  504  0.20502133191E+02  0.24774517604E+02 -0.82777677923E+02  0.88804606582E+02  0.00000000000E+00 0. -1.
<scales pt_clust_1="13000.00000" pt_clust_2="13000.00000" pt_clust_3="87.35805" pt_clust_4="32.15765"></scales>
<clustering>
<clus scale="   32.158">  2  6  1 -1</clus>
<clus scale="   87.358">  1  5  2 -1</clus>
<clus scale="  448.480">  2  4  1 -1</clus>
<clus scale="  448.480">  1  3  2 -1</clus>
</clustering>
</event>
<event>
 4   0  0.3464723E-02  0.3519084E+03  0.7816531E-02  0.1061834E+00
       21   -1    0    0  503  502  0.00000000000E+00  0.00000000000E+00  0.62940553604E+03  0.62940553604E+03  0.00000000000E+00 0. -1.
       21   -1    0    0  501  503  0.00000000000E+00  0.00000000000E+00 -0.26009528957E+03  0.26009528957E+03  0.00000000000E+00 0. -1.
  1000006    1    1    2  501    0  0.11302679821E+02  0.34810380378E+02 -0.34820168269E+02  0.35362686164E+03  0.35000000000E+03 0.  0.
 -1000006    1    1    2    0  502 -0.11302679821E+02 -0.34810380378E+02  0.40413041473E+03  0.53587396397E+03  0.35000000000E+03 0.  0.
<scales pt_clust_1="13000.00000" pt_clust_2="13000.00000"></scales>
<clustering>
<clus scale="  351.908">  2  3  1 -1</clus>
<clus scale="  351.908">  1  3  2 -1</clus>
</clustering>
</event>
<event>
 6   2  0.3464723E-02  0.3695496E+03  0.7816531E-02  0.1054865E+00
        1   -1    0    0  504    0  0.00000000000E+00  0.00000000000E+00  0.21022228444E+04  0.21022228444E+04  0.00000000000E+00 0. -1.
       21   -1    0    0  501  503  0.00000000000E+00  0.00000000000E+00 -0.17003259089E+03  0.17003259089E+03  0.00000000000E+00 0.  1.
  1000006    1    1    2  501    0  0.81894031204E+02  0.81845756005E+02  0.22857995738E+03  0.43376739969E+03  0.35000000000E+03 0.  0.
 -1000006    1    1    2    0  502 -0.17201582023E+02 -0.14500107635E+03  0.72345434664E+03  0.81682764292E+03  0.35000000000E+03 0.  0.
       21    1    1    2  504  503 -0.11437186945E+03  0.11447477706E+03  0.32944878044E+03  0.36704481748E+03  0.00000000000E+00 0. -1.
        1    1    1    2  502    0  0.49679420272E+02 -0.51319456715E+02  0.65070716901E+03  0.65461557515E+03  0.00000000000E+00 0. -1.
<scales pt_clust_1="13000.00000" pt_clust_2="13000.00000" pt_clust_3="144.66174" pt_clust_4="71.42641"></scales>
<clustering>
<clus scale="   71.426">  1  6  2 -1</clus>
<clus scale="  144.662">  1  5  2 -1</clus>
<clus scale="  369.550">  1  4  2 -1</clus>
<clus scale="  369.550">  2  3  1 -1</clus>
</clustering>
</event>
<event>
 6   2  0.3464723E-02  0.4210634E+03  0.7816531E-02  0.1036721E+00
       21   -1    0    0  503  502  0.00000000000E+00  0.00000000000E+00  0.16831672492E+04  0.16831672492E+04  0.00000000000E+00 0.  1.
       21   -1    0    0  504  503  0.00000000000E+00  0.00000000000E+00 -0.21080372783E+03  0.21080372783E+03  0.00000000000E+00 0.  1.
  1000006    1    1    2  501    0  0.22037016092E+03  0.87540419373E+02  0.33676212997E+03  0.54049520352E+03  0.35000000000E+03 0.  0.
 -1000006    1    1    2    0  505 -0.10283097100E+03 -0.21914814036E+03  0.90587225210E+03  0.10008519637E+04  0.35000000000E+03 0.  0.
       21    1    1    2  504  501 -0.85301789695E+02  0.13897854185E+03  0.50995369401E+02  0.17085654251E+03  0.00000000000E+00 0. -1.
       21    1    1    2  505  502 -0.32237400229E+02 -0.73708208644E+01  0.17873376991E+03  0.18176726735E+03  0.00000000000E+00 0.  1.
<scales pt_clust_1="13000.00000" pt_clust_2="13000.00000" pt_clust_3="163.86610" pt_clust_4="33.06931"></scales>
<clustering>
<clus scale="   33.069">  1  6  2 -1</clus>
<clus scale="  163.866">  2  5  1 -1</clus>
<clus scale="  421.063">  1  4  2 -1</clus>
<clus scale="  421.063">  1  3  2 -1</clus>
</clustering>
</event>
<event>
 4   0  0.3464723E-02  0.6246785E+03  0.7816531E-02  0.9855489E-01
        2   -1    0    0  502    0  0.00000000000E+00  0.00000000000E+00  0.18550030145E+04  0.18550030145E+04  0.00000000000E+00 0.  1.
       -2   -1    0    0    0  501  0.00000000000E+00  0.00000000000E+00 -0.24037204618E+03  0.24037204618E+03  0.00000000000E+00 0. -1.
  1000006    1    1    2  502    0  0.50446503239E+03  0.11505748952E+03  0.11775006642E+04  0.13329407372E+04  0.35000000000E+03 0.  0.
 -1000006    1    1    2    0  501 -0.50446503239E+03 -0.11505748952E+03  0.43713030413E+03  0.76243432346E+03  0.35000000000E+03 0.  0.
<scales pt_clust_1="13000.00000" pt_clust_2="13000.00000"></scales>
<clustering>
<clus scale=" 1189.985">  3  4 -1 -1</clus>
<clus scale="  624.678">  1  3  2 -1</clus>
</clustering>
</event>
<event>
 6   2  0.3464723E-02  0.7440911E+03  0.7816531E-02  0.9644666E-01
       21   -1    0    0  501  502  0.00000000000E+00  0.00000000000E+00  0.22773136535E+04  0.22773136535E+04  0.00000000000E+00 0. -1.
       21   -1    0    0  505  503  0.00000000000E+00  0.00000000000E+00 -0.54739151385E+03  0.54739151385E+03  0.00000000000E+00 0.  1.
  1000006    1    1    2  501    0  0.52195980571E+03  0.30175123111E+03  0.10346785938E+04  0.12476199889E+04  0.35000000000E+03 0.  0.
 -1000006    1    1    2    0  503 -0.63807256127E+03 -0.41074299213E+03  0.27884923561E+03  0.88096724981E+03  0.35000000000E+03 0.  0.
       21    1    1    2  504  502  0.53079619705E+02 -0.35022912595E+02  0.50947137265E+03  0.51342490199E+03  0.00000000000E+00 0. -1.
       21    1    1    2  505  504  0.63033135854E+02  0.14401467361E+03 -0.93077062422E+02  0.18269302663E+03  0.00000000000E+00 0.  1.
<scales pt_clust_1="13000.00000" pt_clust_2="13000.00000" pt_clust_3="63.59285" pt_clust_4="156.93894"></scales>
<clustering>
<clus scale="   63.593">  1  5  2 -1</clus>
<clus scale="  156.939">  2  6  1 -1</clus>
<clus scale="  744.091">  1  3  2 -1</clus>
<clus scale="  744.091">  1  3  2 -1</clus>
</clustering>
</event>
<event>
 5   1  0.3464723E-02  0.3778804E+03  0.7816531E-02  0.1051720E+00
       21   -1    0    0  501  502  0.00000000000E+00  0.00000000000E+00  0.11289799958E+04  0.11289799958E+04  0.00000000000E+00 0.  1.
       21   -1    0    0  504  503  0.00000000000E+00  0.00000000000E+00 -0.18353793847E+03  0.18353793847E+03  0.00000000000E+00 0.  1.
  1000006    1    1    2  501    0 -0.15650106979E+03 -0.14410651545E+03  0.51037125797E+03  0.65439903240E+03  0.35000000000E+03 0.  0.
 -1000006    1    1    2    0  503  0.96564135828E+02  0.30987073787E+02  0.29978202195E+03  0.47186236527E+03  0.35000000000E+03 0.  0.
       21    1    1    2  504  502  0.59936933964E+02  0.11311944167E+03  0.13528877741E+03  0.18625653661E+03  0.00000000000E+00 0.  1.
<scales pt_clust_1="13000.00000" pt_clust_2="13000.00000" pt_clust_3="128.01736"></scales>
<clustering>
<clus scale="  128.017">  1  5  2 -1</clus>
<clus scale="  377.880">  2  4  1 -1</clus>
<clus scale="  377.880">  1  3  2 -1</clus>
</clustering>
</event>
<event>
 4   0  0.3464723E-02  0.3614356E+03  0.7816531E-02  0.1058017E+00
       21   -1    0    0  501  502  0.00000000000E+00  0.00000000000E+00  0.84670964341E+03  0.84670964341E+03  0.00000000000E+00 0.  1.
       21   -1    0    0  502  503  0.00000000000E+00  0.00000000000E+00 -0.16249621392E+03  0.16249621392E+03  0.00000000000E+00 0.  1.
  1000006    1    1    2  501    0  0.47623540773E+02  0.76600718716E+02  0.45552896705E+03  0.58150005294E+03  0.35000000000E+03 0.  0.
 -1000006    1    1    2    0  503 -0.47623540773E+02 -0.76600718716E+02  0.22868446244E+03  0.42770580439E+03  0.35000000000E+03 0.  0.
<scales pt_clust_1="13000.00000" pt_clust_2="13000.00000"></scales>
<clustering>
<clus scale="  361.436">  1  3  2 -1</clus>
<clus scale="  361.436">  1  3  2 -1</clus>
</clustering>
</event>
<event>
 4   0  0.3464723E-02  0.3662431E+03  0.7816531E-02  0.1056139E+00
       21   -1    0    0  503  502  0.00000000000E+00  0.00000000000E+00  0.43061387073E+03  0.43061387073E+03  0.00000000000E+00 0. -1.
       21   -1    0    0  501  503  0.00000000000E+00  0.00000000000E+00 -0.41933753302E+03  0.41933753302E+03  0.00000000000E+00 0. -1.
  1000006    1    1    2  501    0  0.10227047907E+03 -0.34274961583E+02 -0.20987681819E+03  0.42211645632E+03  0.35000000000E+03 0.  0.
 -1000006    1    1    2    0  502 -0.10227047907E+03  0.34274961583E+02  0.22115315589E+03  0.42783494743E+03  0.35000000000E+03 0.  0.
<scales pt_clust_1="13000.00000" pt_clust_2="13000.00000"></scales>
<clustering>
<clus scale="  366.243">  2  3  1 -1</clus>
<clus scale="  366.243">  1  3  2 -1</clus>
</clustering>
</event>
<event>
 4   0  0.3464723E-02  0.3536692E+03  0.7816531E-02  0.1061119E+00
       21   -1    0    0  503  502  0.00000000000E+00  0.00000000000E+00  0.11052853042E+03  0.11052853042E+03  0.00000000000E+00 0. -1.
       21   -1    0    0  501  503  0.00000000000E+00  0.00000000000E+00 -0.11383847699E+04  0.11383847699E+04  0.00000000000E+00 0. -1.
  1000006    1    1    2  501    0 -0.37160858903E+02 -0.34655436472E+02 -0.56188402659E+03  0.66392438428E+03  0.35000000000E+03 0.  0.
 -1000006    1    1    2    0  502  0.37160858903E+02  0.34655436472E+02 -0.46597221293E+03  0.58498891608E+03  0.35000000000E+03 0.  0.
<scales pt_clust_1="13000.00000" pt_clust_2="13000.00000"></scales>
<clustering>
<clus scale="  353.669">  2  3  1 -1</clus>
<clus scale="  353.669">  1  3  2 -1</clus>
</clustering>
</event>
<event>
 5   1  0.3464723E-02  0.6563756E+03  0.7816531E-02  0.9794889E-01
        2   -1    0    0  503    0  0.00000000000E+00  0.00000000000E+00  0.17229181358E+04  0.17229181358E+04  0.00000000000E+00 0. -1.
       -2   -1    0    0    0  501  0.00000000000E+00  0.00000000000E+00 -0.93859484162E+03  0.93859484162E+03  0.00000000000E+00 0.  1.
  1000006    1    1    2  502    0  0.39558891080E+03 -0.34559928264E+03  0.85531820564E+03  0.10630139620E+04  0.35000000000E+03 0.  0.
 -1000006    1    1    2    0  501 -0.39876757736E+03  0.39241245205E+03 -0.70331207792E+03  0.96444335875E+03  0.35000000000E+03 0.  0.
       21    1    1    2  503  502  0.31786665574E+01 -0.46813169411E+02  0.63231716646E+03  0.63405565667E+03  0.00000000000E+00 0. -1.
<scales pt_clust_1="13000.00000" pt_clust_2="13000.00000" pt_clust_3="46.92096"></scales>
<clustering>
<clus scale="   46.921">  1  5  2 -1</clus>
<clus scale=" 1928.153">  3  4 -1 -1</clus>
<clus scale="  656.376">  1  3  2 -1</clus>
</clustering>
</event>
<event>
 5   1  0.3464723E-02  0.4984595E+03  0.7816531E-02  0.1014182E+00
       21   -1    0    0  501  502  0.00000000000E+00  0.00000000000E+00  0.23068892404E+04  0.23068892404E+04  0.00000000000E+00 0.  1.
       21   -1    0    0  504  503  0.00000000000E+00  0.00000000000E+00 -0.22352213824E+03  0.22352213824E+03  0.00000000000E+00 0.  1.
  1000006    1    1    2  501    0 -0.36734180319E+03  0.10602321096E+03  0.14348560775E+04  0.15256122983E+04  0.35000000000E+03 0.  0.
 -1000006    1    1    2    0  503  0.32324474707E+03  0.22917314241E+02  0.70996197692E+03  0.85531186036E+03  0.35000000000E+03 0.  0.
       21    1    1    2  504  502  0.44097056119E+02 -0.12894052520E+03 -0.61450952259E+02  0.14948721996E+03  0.00000000000E+00 0.  1.
<scales pt_clust_1="13000.00000" pt_clust_2="13000.00000" pt_clust_3="136.27256"></scales>
<clustering>
<clus scale="  136.273">  2  5  1 -1</clus>
<clus scale="  498.460">  1  3  2 -1</clus>
<clus scale="  498.460">  1  3  2 -1</clus>
</clustering>
</event>
<event>
 6   2  0.3464723E-02  0.3919979E+03  0.7816531E-02  0.1046586E+00
        2   -1    0    0  503    0  0.00000000000E+00  0.00000000000E+00  0.12696575430E+04  0.12696575430E+04  0.00000000000E+00 0.  1.
       21   -1    0    0  504  503  0.00000000000E+00  0.00000000000E+00 -0.17637213771E+03  0.17637213771E+03  0.00000000000E+00 0.  1.
  1000006    1    1    2  501    0  0.11581774402E+03  0.10401308890E+03  0.24679072985E+03  0.45567327860E+03  0.35000000000E+03 0.  0.
 -1000006    1    1    2    0  502 -0.12642339149E+03 -0.14270010659E+03  0.72319193213E+03  0.82574376476E+03  0.35000000000E+03 0.  0.
       21    1    1    2  504  501  0.28435932388E+02  0.11447859555E+02 -0.60334615815E+01  0.31241933324E+02  0.00000000000E+00 0.  1.
        2    1    1    2  502    0 -0.17830284919E+02  0.27239158141E+02  0.12933620494E+03  0.13337070407E+03  0.00000000000E+00 0.  1.
<scales pt_clust_1="13000.00000" pt_clust_2="13000.00000" pt_clust_3="30.65380" pt_clust_4="32.48156"></scales>
<clustering>
<clus scale="   30.654">  2  5  1 -1</clus>
<clus scale="   32.482">  1  6  2 -1</clus>
<clus scale="  391.998">  2  3  1 -1</clus>
<clus scale="  391.998">  2  3  1 -1</clus>
</clustering>
</event>
<event>
 5   1  0.3464723E-02  0.4244943E+03  0.7816531E-02  0.1035613E+00
        2   -1    0    0  501    0  0.00000000000E+00  0.00000000000E+00  0.68681531709E+03  0.68681531709E+03  0.00000000000E+00 0.  1.
       21   -1    0    0  502  503  0.00000000000E+00  0.00000000000E+00 -0.87648095436E+03  0.87648095436E+03  0.00000000000E+00 0.  1.
  1000006    1    1    2  501    0 -0.10010340280E+03 -0.13552922008E+03 -0.46581574960E+01  0.38847208288E+03  0.35000000000E+03 0.  0.
 -1000006    1    1    2    0  503 -0.25955190344E+02  0.28191873307E+03 -0.58054397454E+03  0.73463130231E+03  0.35000000000E+03 0.  0.
        2    1    1    2  502    0  0.12605859314E+03 -0.14638951299E+03  0.39553649477E+03  0.44019288626E+03  0.00000000000E+00 0.  1.
<scales pt_clust_1="13000.00000" pt_clust_2="13000.00000" pt_clust_3="193.18555"></scales>
<clustering>
<clus scale="  193.186">  1  5  2 -1</clus>
<clus scale="  424.494">  1  3  2 -1</clus>
<clus scale="  424.494">  2  3  1 -1</clus>
</clustering>
</event>
<event>
 6   2  0.3464723E-02  0.3546226E+03  0.7816531E-02  0.1060734E+00
       21   -1    0    0  502  503  0.00000000000E+00  0.00000000000E+00  0.10624052295E+04  0.10624052295E+04  0.00000000000E+00 0.  1.
        2   -1    0    0  504    0  0.00000000000E+00  0.00000000000E+00 -0.20206874970E+04  0.20206874970E+04  0.00000000000E+00 0. -1.
  1000006    1    1    2  501    0  0.17499600737E+03  0.14263708183E+02  0.17672299833E+03  0.42960222777E+03  0.35000000000E+03 0.  0.
 -1000006    1    1    2    0  503 -0.18231402629E+02  0.13023761473E+02  0.70620493264E+03  0.78849693042E+03  0.35000000000E+03 0.  0.
       21    1    1    2  504  501 -0.58531769020E+02  0.73272780866E+02 -0.24074002201E+03  0.25836142629E+03  0.00000000000E+00 0.  1.
        2    1    1    2  502    0 -0.98232835724E+02 -0.10056025052E+03 -0.16004701764E+04  0.16066321420E+04  0.00000000000E+00 0. -1.
<scales pt_clust_1="13000.00000" pt_clust_2="13000.00000" pt_clust_3="93.78096" pt_clust_4="155.04981"></scales>
<clustering>
<clus scale="   93.781">  2  5  1 -1</clus>
<clus scale="  155.050">  2  6  1 -1</clus>
<clus scale="  354.623">  2  3  1 -1</clus>
<clus scale="  354.623">  1  3  2 -1</clus>
</clustering>
</event>
<event>
 5   1  0.3464723E-02  0.4217756E+03  0.7816531E-02  0.1036490E+00
       21   -1    0    0  504  502  0.00000000000E+00  0.00000000000E+00  0.25639844449E+04  0.25639844449E+04  0.00000000000E+00 0. -1.
       21   -1    0    0  501  503  0.00000000000E+00  0.00000000000E+00 -0.87942131466E+02  0.87942131466E+02  0.00000000000E+00 0. -1.
  1000006    1    1    2  501    0 -0.20219576393E+03 -0.13759020285E+03  0.72909103994E+03  0.84491889279E+03  0.35000000000E+03 0.  0.
 -1000006    1    1    2    0  502  0.19521000915E+03  0.99678755874E+02  0.14532511607E+04  0.15107884491E+04  0.35000000000E+03 0.  0.
       21    1    1    2  504  503  0.69857547776E+01  0.37911446974E+02  0.29370011280E+03  0.29621923442E+03  0.00000000000E+00 0. -1.
<scales pt_clust_1="13000.00000" pt_clust_2="13000.00000" pt_clust_3="38.54969"></scales>
<clustering>
<clus scale="   38.550">  1  5  2 -1</clus>
<clus scale="  421.776">  1  4  2 -1</clus>
<clus scale="  421.776">  1  3  2 -1</clus>
</clustering>
</event>
<event>
 5   1  0.3464723E-02  0.3760326E+03  0.7816531E-02  0.1052410E+00
       21   -1    0    0  501  502  0.00000000000E+00  0.00000000000E+00  0.11391805299E+04  0.11391805299E+04  0.00000000000E+00 0. -1.
       21   -1    0    0  504  503  0.00000000000E+00  0.00000000000E+00 -0.27895583310E+03  0.27895583310E+03  0.00000000000E+00 0. -1.
  1000006    1    1    2  501    0  0.76020559020E+02 -0.87073549916E+02  0.36461546717E+03  0.51846443214E+03  0.35000000000E+03 0.  0.
 -1000006    1    1    2    0  503  0.94514082141E+02  0.15273421942E+03  0.24265248069E+02  0.39414395310E+03  0.35000000000E+03 0.  0.
       21    1    1    2  504  502 -0.17053464116E+03 -0.65660669500E+02  0.47134398154E+03  0.50552797775E+03  0.00000000000E+00 0. -1.
<scales pt_clust_1="13000.00000" pt_clust_2="13000.00000" pt_clust_3="182.73858"></scales>
<clustering>
<clus scale="  182.739">  1  5  2 -1</clus>
<clus scale="  376.033">  2  4  1 -1</clus>
<clus scale="  376.033">  1  3  2 -1</clus>
</clustering>
</event>
<event>
 4   0  0.3464723E-02  0.4895050E+03  0.7816531E-02  0.1016555E+00
       21   -1    0    0  501  502  0.00000000000E+00  0.00000000000E+00  0.26626740599E+03  0.26626740599E+03  0.00000000000E+00 0.  1.
       21   -1    0    0  502  503  0.00000000000E+00  0.00000000000E+00 -0.89991153813E+03  0.89991153813E+03  0.00000000000E+00 0.  1.
  1000006    1    1    2  501    0  0.32853359171E+03  0.95816572368E+02 -0.31514827956E+03  0.58218001901E+03  0.35000000000E+03 0.  0.
 -1000006    1    1    2    0  503 -0.32853359171E+03 -0.95816572368E+02 -0.31849585258E+03  0.58399892511E+03  0.35000000000E+03 0.  0.
<scales pt_clust_1="13000.00000" pt_clust_2="13000.00000"></scales>
<clustering>
<clus scale="  489.505">  1  3  2 -1</clus>
<clus scale="  489.505">  1  3  2 -1</clus>
</clustering>
</event>
<event>
 4   0  0.3464723E-02  0.5827813E+03  0.7816531E-02  0.9941788E-01
        4   -1    0    0  502    0  0.00000000000E+00  0.00000000000E+00  0.12637119595E+04  0.12637119595E+04  0.00000000000E+00 0.  1.
       -4   -1    0    0    0  501  0.00000000000E+00  0.00000000000E+00 -0.27759140982E+03  0.27759140982E+03  0.00000000000E+00 0. -1.
  1000006    1    1    2  502    0  0.65787931914E+02  0.46130905170E+03  0.63052529017E+03  0.85860132466E+03  0.35000000000E+03 0.  0.
 -1000006    1    1    2    0  501 -0.65787931914E+02 -0.46130905170E+03  0.35559525947E+03  0.68270204462E+03  0.35000000000E+03 0.  0.
<scales pt_clust_1="13000.00000" pt_clust_2="13000.00000"></scales>
<clustering>
<clus scale=" 1017.685">  3  4 -1 -1</clus>
<clus scale="  582.781">  1  3  2 -1</clus>
</clustering>
</event>
<event>
 6   2  0.3464723E-02  0.3678998E+03  0.7816531E-02  0.1055499E+00
       21   -1    0    0  504  502  0.00000000000E+00  0.00000000000E+00  0.29166570944E+03  0.29166570944E+03  0.00000000000E+00 0. -1.
       21   -1    0    0  501  503  0.00000000000E+00  0.00000000000E+00 -0.83706979817E+03  0.83706979817E+03  0.00000000000E+00 0. -1.
  1000006    1    1    2  501    0 -0.47274070773E+02  0.10505124878E+03 -0.45428160463E+03  0.58492937945E+03  0.35000000000E+03 0.  0.
 -1000006    1    1    2    0  505  0.35165976430E+02 -0.10477083371E+03 -0.18352708260E+03  0.41036052873E+03  0.35000000000E+03 0.  0.
       21    1    1    2  504  503  0.49878407323E+02  0.15662763393E+02  0.35037761584E+02  0.62935065036E+02  0.00000000000E+00 0. -1.
       21    1    1    2  505  502 -0.37770312980E+02 -0.15943178459E+02  0.57366836923E+02  0.70510534395E+02  0.00000000000E+00 0.  1.
<scales pt_clust_1="13000.00000" pt_clust_2="13000.00000" pt_clust_3="43.50882" pt_clust_4="40.99734"></scales>
<clustering>
<clus scale="   40.997">  1  6  2 -1</clus>
<clus scale="   43.509">  1  5  2 -1</clus>
<clus scale="  367.900">  1  4  2 -1</clus>
<clus scale="  367.900">  1  3  2 -1</clus>
</clustering>
</event>
<event>
 6   2  0.3464723E-02  0.4515956E+03  0.7816531E-02  0.1027247E+00
        2   -1    0    0  504    0  0.00000000000E+00  0.00000000000E+00  0.88123148618E+03  0.88123148618E+03  0.00000000000E+00 0. -1.
       21   -1    0    0  501  503  0.00000000000E+00  0.00000000000E+00 -0.17104865762E+04  0.17104865762E+04  0.00000000000E+00 0.  1.
  1000006    1    1    2  501    0  0.20853030978E+03 -0.18956725266E+03 -0.15230497475E+04  0.15879550267E+04  0.35000000000E+03 0.  0.
 -1000006    1    1    2    0  502 -0.33486457849E+03  0.15803259995E+03  0.53380152135E+03  0.73793810904E+03  0.35000000000E+03 0.  0.
       21    1    1    2  504  503  0.34838967517E+02  0.24434116305E+02  0.16837833614E+03  0.17367223088E+03  0.00000000000E+00 0.  1.
        2    1    1    2  502    0  0.91495301192E+02  0.71005364052E+01 -0.83851999827E+01  0.92152695762E+02  0.00000000000E+00 0. -1.
<scales pt_clust_1="13000.00000" pt_clust_2="13000.00000" pt_clust_3="42.55326" pt_clust_4="93.93903"></scales>
<clustering>
<clus scale="   42.553">  1  5  2 -1</clus>
<clus scale="   93.939">  1  6  2 -1</clus>
<clus scale="  451.596">  2  3  1 -1</clus>
<clus scale="  451.596">  2  3  1 -1</clus>
</clustering>
</event>
<event>
 6   2  0.3464723E-02  0.3768014E+03  0.7816531E-02  0.1052122E+00
       21   -1    0    0  505  502  0.00000000000E+00  0.00000000000E+00  0.21035583076E+04  0.21035583076E+04  0.00000000000E+00 0.  1.
       21   -1    0    0  504  503  0.00000000000E+00  0.00000000000E+00 -0.18078586766E+03  0.18078586766E+03  0.00000000000E+00 0.  1.
  1000006    1    1    2  501    0  0.51990836378E+02  0.19369627657E+03  0.39558606995E+03  0.56498640104E+03  0.35000000000E+03 0.  0.
 -1000006    1    1    2    0  503 -0.10492680683E+01 -0.93460237243E+02  0.29073203508E+03  0.46450084298E+03  0.35000000000E+03 0.  0.
       21    1    1    2  504  502  0.24837225917E+02  0.29223403308E+02  0.80042663809E+02  0.88756538473E+02  0.00000000000E+00 0. -1.
       21    1    1    2  505  501 -0.75778794227E+02 -0.12945944263E+03  0.11564116711E+04  0.11661003927E+04  0.00000000000E+00 0.  1.
<scales pt_clust_1="13000.00000" pt_clust_2="13000.00000" pt_clust_3="38.35225" pt_clust_4="128.34389"></scales>
<clustering>
<clus scale="   38.352">  1  5  2 -1</clus>
<clus scale="  128.344">  1  6  2 -1</clus>
<clus scale="  376.801">  1  3  2 -1</clus>
<clus scale="  376.801">  1  3  2 -1</clus>
</clustering>
</event>
<event>
 5   1  0.3464723E-02  0.4953721E+03  0.7816531E-02  0.1014994E+00
        2   -1    0    0  501    0  0.00000000000E+00  0.00000000000E+00  0.29605689986E+04  0.29605689986E+04  0.00000000000E+00 0.  1.
       21   -1    0    0  502  503  0.00000000000E+00  0.00000000000E+00 -0.28206357188E+03  0.28206357188E+03  0.00000000000E+00 0. -1.
  1000006    1    1    2  501    0 -0.34988817313E+03 -0.12322228565E+03  0.11373066616E+04  0.12464236470E+04  0.35000000000E+03 0.  0.
 -1000006    1    1    2    0  503  0.31387339905E+03  0.12584513220E+03  0.17335132222E+04  0.18005336985E+04  0.35000000000E+03 0.  0.
        2    1    1    2  502    0  0.36014774076E+02 -0.26228465507E+01 -0.19231445704E+03  0.19567522496E+03  0.00000000000E+00 0.  1.
<scales pt_clust_1="13000.00000" pt_clust_2="13000.00000" pt_clust_3="36.11015"></scales>
<clustering>
<clus scale="   36.110">  2  5  1 -1</clus>
<clus scale="  820.694">  3  4 -1 -1</clus>
<clus scale="  495.372">  2  3  1 -1</clus>
</clustering>
</event>
<event>
 6   2  0.3464723E-02  0.6590131E+03  0.7816531E-02  0.9790012E-01
       21   -1    0    0  501  502  0.00000000000E+00  0.00000000000E+00  0.47886542990E+03  0.47886542990E+03  0.00000000000E+00 0.  1.
       21   -1    0    0  504  503  0.00000000000E+00  0.00000000000E+00 -0.18092546904E+04  0.18092546904E+04  0.00000000000E+00 0. -1.
  1000006    1    1    2  501    0  0.42116608700E+03  0.45542001234E+03 -0.32978286560E+03  0.78488534126E+03  0.35000000000E+03 0.  0.
 -1000006    1    1    2    0  505 -0.20705713381E+03 -0.49354002061E+03 -0.78126533519E+03  0.10096187065E+04  0.35000000000E+03 0.  0.
       21    1    1    2  504  502 -0.46612742866E+02 -0.70284210413E+02  0.91382920943E+02  0.12435214623E+03  0.00000000000E+00 0.  1.
       21    1    1    2  505  503 -0.16749621032E+03  0.10840421869E+03 -0.31072398061E+03  0.36926392625E+03  0.00000000000E+00 0.  1.
<scales pt_clust_1="13000.00000" pt_clust_2="13000.00000" pt_clust_3="84.33634" pt_clust_4="199.70090"></scales>
<clustering>
<clus scale="   84.336">  1  5  2 -1</clus>
<clus scale="  199.701">  2  6  1 -1</clus>
<clus scale="  659.013">  2  4  1 -1</clus>
<clus scale="  659.013">  1  3  2 -1</clus>
</clustering>
</event>
<event>
 4   0  0.3464723E-02  0.4040284E+03  0.7816531E-02  0.1042394E+00
       21   -1    0    0  503  502  0.00000000000E+00  0.00000000000E+00  0.11665232207E+04  0.11665232207E+04  0.00000000000E+00 0. -1.
       21   -1    0    0  501  503  0.00000000000E+00  0.00000000000E+00 -0.14750775204E+03  0.14750775204E+03  0.00000000000E+00 0. -1.
  1000006    1    1    2  501    0 -0.20153748829E+03 -0.11027221811E+02  0.36065480275E+03  0.54158179950E+03  0.35000000000E+03 0.  0.
 -1000006    1    1    2    0  502  0.20153748829E+03  0.11027221811E+02  0.65836066594E+03  0.77244917325E+03  0.35000000000E+03 0.  0.
<scales pt_clust_1="13000.00000" pt_clust_2="13000.00000"></scales>
<clustering>
<clus scale="  404.028">  2  3  1 -1</clus>
<clus scale="  404.028">  1  3  2 -1</clus>
</clustering>
</event>
<event>
 5   1  0.3464723E-02  0.3816946E+03  0.7816531E-02  0.1050309E+00
       21   -1    0    0  501  502  0.00000000000E+00  0.00000000000E+00  0.79099964732E+03  0.79099964732E+03  0.00000000000E+00 0.  1.
       21   -1    0    0  502  503  0.00000000000E+00  0.00000000000E+00 -0.20856600238E+03  0.20856600238E+03  0.00000000000E+00 0.  1.
  1000006    1    1    2  501    0  0.38449782657E+01 -0.13939001714E+03  0.35115524349E+03  0.51502850966E+03  0.35000000000E+03 0.  0.
 -1000006    1    1    2    0  504 -0.22385154504E+02  0.16898085121E+03  0.22300916012E+03  0.44865210210E+03  0.35000000000E+03 0.  0.
       21    1    1    2  504  503  0.18540176238E+02 -0.29590834066E+02  0.82692413354E+01  0.35885037940E+02  0.00000000000E+00 0.  1.
<scales pt_clust_1="13000.00000" pt_clust_2="13000.00000" pt_clust_3="34.91927"></scales>
<clustering>
<clus scale="   34.919">  2  5  1 -1</clus>
<clus scale="  381.695">  2  4  1 -1</clus>
<clus scale="  381.695">  1  3  2 -1</clus>
</clustering>
</event>
<event>
 5   1  0.3464723E-02  0.6741353E+03  0.7816531E-02  0.9925904E-01
       21   -1    0    0  501  503  0.00000000000E+00  0.00000000000E+00  0.12834176310E+04  0.12834176310E+04  0.00000000000E+00 0. -1.
        2   -1    0    0  503    0  0.00000000000E+00  0.00000000000E+00 -0.14116910826E+04  0.14116910826E+04  0.00000000000E+00 0.  1.
  1000006    1    1    2  501    0 -0.14740951641E+03  0.11258440208E+03  0.82457149547E+03  0.91478028196E+03  0.35000000000E+03 0.  0.
 -1000006    1    1    2    0  502  0.55125238527E+03  0.28964898096E+03 -0.54491412778E+02  0.71641122165E+03  0.35000000000E+03 0.  0.
        2    1    1    2  502    0 -0.40384286885E+03 -0.40223338304E+03 -0.89835353433E+03  0.10639172100E+04  0.00000000000E+00 0.  1.
<scales pt_clust_1="13000.00000" pt_clust_2="13000.00000" pt_clust_3="576.15831"></scales>
<clustering>
<clus scale="  396.112">  1  3  2 -1</clus>
<clus scale="  576.158">  2  5  1 -1</clus>
<clus scale="  674.135">  1  3  2 -1</clus>
</clustering>
</event>
<event>
 4   0  0.3464723E-02  0.4625526E+03  0.7816531E-02  0.1024043E+00
       21   -1    0    0  501  502  0.00000000000E+00  0.00000000000E+00  0.88653199724E+03  0.88653199724E+03  0.00000000000E+00 0.  1.
       21   -1    0    0  502  503  0.00000000000E+00  0.00000000000E+00 -0.44188032744E+03  0.44188032744E+03  0.00000000000E+00 0.  1.
  1000006    1    1    2  501    0 -0.19349147326E+03 -0.23241335729E+03  0.66978385650E+03  0.81398116275E+03  0.35000000000E+03 0.  0.
 -1000006    1    1    2    0  503  0.19349147326E+03  0.23241335729E+03 -0.22513218671E+03  0.51443116193E+03  0.35000000000E+03 0.  0.
<scales pt_clust_1="13000.00000" pt_clust_2="13000.00000"></scales>
<clustering>
<clus scale="  462.553">  1  3  2 -1</clus>
<clus scale="  462.553">  1  3  2 -1</clus>
</clustering>
</event>
<event>
 4   0  0.3464723E-02  0.3848492E+03  0.7816531E-02  0.1049156E+00
       21   -1    0    0  503  502  0.00000000000E+00  0.00000000000E+00  0.40811826300E+03  0.40811826300E+03  0.00000000000E+00 0.  1.
       21   -1    0    0  501  503  0.00000000000E+00  0.00000000000E+00 -0.47705794619E+03  0.47705794619E+03  0.00000000000E+00 0.  1.
  1000006    1    1    2  501    0 -0.67628568037E+02  0.14503536124E+03 -0.25096808250E+03  0.45944951590E+03  0.35000000000E+03 0.  0.
 -1000006    1    1    2    0  502  0.67628568037E+02 -0.14503536124E+03  0.18202839931E+03  0.42572669329E+03  0.35000000000E+03 0.  0.
<scales pt_clust_1="13000.00000" pt_clust_2="13000.00000"></scales>
<clustering>
<clus scale="  384.849">  2  3  1 -1</clus>
<clus scale="  384.849">  1  3  2 -1</clus>
</clustering>
</event>
<event>
 5   1  0.3464723E-02  0.3680610E+03  0.7816531E-02  0.1055437E+00
       21   -1    0    0  501  503  0.00000000000E+00  0.00000000000E+00  0.42890038154E+03  0.42890038154E+03  0.00000000000E+00 0. -1.
       -3   -1    0    0    0  501  0.00000000000E+00  0.00000000000E+00 -0.17542190227E+04  0.17542190227E+04  0.00000000000E+00 0.  1.
  1000006    1    1    2  502    0  0.44643900160E+02 -0.15532696798E+03 -0.90383583637E+02  0.39596557552E+03  0.35000000000E+03 0.  0.
 -1000006    1    1    2    0  503  0.16023473990E+03  0.29409300755E+02  0.12525579102E+03  0.40586831858E+03  0.35000000000E+03 0.  0.
       -3    1    1    2    0  502 -0.20487864006E+03  0.12591766723E+03 -0.13601908486E+04  0.13812855102E+04  0.00000000000E+00 0.  1.
<scales pt_clust_1="13000.00000" pt_clust_2="13000.00000" pt_clust_3="240.47976"></scales>
<clustering>
<clus scale="  240.480">  2  5  1 -1</clus>
<clus scale="  368.061">  2  3  1 -1</clus>
<clus scale="  368.061">  1  3  2 -1</clus>
</clustering>
</event>
<event>
 4   0  0.3464723E-02  0.4470409E+03  0.7816531E-02  0.1028608E+00
       21   -1    0    0  503  502  0.00000000000E+00  0.00000000000E+00  0.18212219661E+03  0.18212219661E+03  0.00000000000E+00 0.  1.
       21   -1    0    0  501  503  0.00000000000E+00  0.00000000000E+00 -0.10973726695E+04  0.10973726695E+04  0.00000000000E+00 0.  1.
  1000006    1    1    2  501    0 -0.27267437838E+03  0.54719339348E+02 -0.46223981671E+03  0.64304834257E+03  0.35000000000E+03 0.  0.
 -1000006    1    1    2    0  502  0.27267437838E+03 -0.54719339348E+02 -0.45301065621E+03  0.63644652357E+03  0.35000000000E+03 0.  0.
<scales pt_clust_1="13000.00000" pt_clust_2="13000.00000"></scales>
<clustering>
<clus scale="  447.041">  2  3  1 -1</clus>
<clus scale="  447.041">  1  3  2 -1</clus>
</clustering>
</event>
<event>
 5   1  0.3464723E-02  0.3640436E+03  0.7816531E-02  0.1056994E+00
       21   -1    0    0  503  502  0.00000000000E+00  0.00000000000E+00  0.13777624140E+03  0.13777624140E+03  0.00000000000E+00 0. -1.
       21   -1    0    0  504  503  0.00000000000E+00  0.00000000000E+00 -0.22756006887E+04  0.22756006887E+04  0.00000000000E+00 0. -1.
  1000006    1    1    2  501    0 -0.74517390573E+02  0.61995562272E+02 -0.47825451845E+03  0.60051950481E+03  0.35000000000E+03 0.  0.
 -1000006    1    1    2    0  502  0.51471801037E+02 -0.92431840048E+02 -0.36132503956E+03  0.51405133554E+03  0.35000000000E+03 0.  0.
       21    1    1    2  504  501  0.23045589536E+02  0.30436277776E+02 -0.12982448893E+04  0.12988060898E+04  0.00000000000E+00 0. -1.
<scales pt_clust_1="13000.00000" pt_clust_2="13000.00000" pt_clust_3="38.17678"></scales>
<clustering>
<clus scale="   38.177">  2  5  1 -1</clus>
<clus scale="  364.044">  2  3  1 -1</clus>
<clus scale="  364.044">  1  3  2 -1</clus>
</clustering>
</event>
<event>
 4   0  0.3464723E-02  0.3649154E+03  0.7816531E-02  0.1056654E+00
       21   -1    0    0  501  502  0.00000000000E+00  0.00000000000E+00  0.75230473245E+02  0.75230473245E+02  0.00000000000E+00 0.  1.
       21   -1    0    0  502  503  0.00000000000E+00  0.00000000000E+00 -0.21750796871E+04  0.21750796871E+04  0.00000000000E+00 0.  1.
  1000006    1    1    2  501    0  0.10324288251E+03 -0.20468794702E+01 -0.56440480927E+03  0.67209826010E+03  0.35000000000E+03 0.  0.
 -1000006    1    1    2    0  503 -0.10324288251E+03  0.20468794702E+01 -0.15354444046E+04  0.15782119003E+04  0.35000000000E+03 0.  0.
<scales pt_clust_1="13000.00000" pt_clust_2="13000.00000"></scales>
<clustering>
<clus scale="  364.915">  1  3  2 -1</clus>
<clus scale="  364.915">  1  3  2 -1</clus>
</clustering>
</event>
<event>
 5   1  0.3464723E-02  0.3638971E+03  0.7816531E-02  0.1057051E+00
       21   -1    0    0  504  502  0.00000000000E+00  0.00000000000E+00  0.30080988323E+03  0.30080988323E+03  0.00000000000E+00 0. -1.
       21   -1    0    0  501  503  0.00000000000E+00  0.00000000000E+00 -0.59145290102E+03  0.59145290102E+03  0.00000000000E+00 0. -1.
  1000006    1    1    2  501    0  0.76409397781E+02 -0.40561280480E+02 -0.18767307978E+03  0.40645393148E+03  0.35000000000E+03 0.  0.
 -1000006    1    1    2    0  502 -0.10769439882E+03  0.18422800877E+02  0.97137692731E+01  0.36678582367E+03  0.35000000000E+03 0.  0.
       21    1    1    2  504  503  0.31285001042E+02  0.22138479603E+02 -0.11268370729E+03  0.11902302910E+03  0.00000000000E+00 0. -1.
<scales pt_clust_1="13000.00000" pt_clust_2="13000.00000" pt_clust_3="38.32576"></scales>
<clustering>
<clus scale="   38.326">  2  5  1 -1</clus>
<clus scale="  363.897">  2  3  1 -1</clus>
<clus scale="  363.897">  1  3  2 -1</clus>
</clustering>
</event>
<event>
 6   2  0.3464723E-02  0.3828874E+03  0.7816531E-02  0.1049872E+00
       21   -1    0    0  501  502  0.00000000000E+00  0.00000000000E+00  0.85173797349E+03  0.85173797349E+03  0.00000000000E+00 0.  1.
       21   -1    0    0  505  503  0.00000000000E+00  0.00000000000E+00 -0.40408318579E+03  0.40408318579E+03  0.00000000000E+00 0.  1.
  1000006    1    1    2  501    0 -0.96011007485E+02  0.68290941954E+01  0.18548901618E+03  0.40764068149E+03  0.35000000000E+03 0.  0.
 -1000006    1    1    2    0  503  0.13904792155E+03 -0.13271934881E+03 -0.13832606506E+03  0.42259064153E+03  0.35000000000E+03 0.  0.
       21    1    1    2  504  502 -0.47054449142E+02  0.64333323475E+02  0.26476408234E+03  0.27650120612E+03  0.00000000000E+00 0.  1.
       21    1    1    2  505  504  0.40175350728E+01  0.61556931135E+02  0.13572775425E+03  0.14908863012E+03  0.00000000000E+00 0.  1.
<scales pt_clust_1="13000.00000" pt_clust_2="13000.00000" pt_clust_3="143.98957" pt_clust_4="48.44567"></scales>
<clustering>
<clus scale="   48.446">  5  6 -1 -1</clus>
<clus scale="  143.990">  1  5  2 -1</clus>
<clus scale="  382.887">  2  4  1 -1</clus>
<clus scale="  382.887">  1  3  2 -1</clus>
</clustering>
</event>
<event>
 4   0  0.3464723E-02  0.3811774E+03  0.7816531E-02  0.1050499E+00
       21   -1    0    0  503  502  0.00000000000E+00  0.00000000000E+00  0.37976626403E+03  0.37976626403E+03  0.00000000000E+00 0. -1.
       21   -1    0    0  501  503  0.00000000000E+00  0.00000000000E+00 -0.52107558204E+03  0.52107558204E+03  0.00000000000E+00 0. -1.
  1000006    1    1    2  501    0  0.13523804161E+03  0.67133443948E+02 -0.30285586936E+03  0.48684484674E+03  0.35000000000E+03 0.  0.
 -1000006    1    1    2    0  502 -0.13523804161E+03 -0.67133443948E+02  0.16154655135E+03  0.41399699932E+03  0.35000000000E+03 0.  0.
<scales pt_clust_1="13000.00000" pt_clust_2="13000.00000"></scales>
<clustering>
<clus scale="  381.177">  2  3  1 -1</clus>
<clus scale="  381.177">  1  3  2 -1</clus>
</clustering>
</event>
<event>
 4   0  0.3464723E-02  0.3812821E+03  0.7816531E-02  0.1050461E+00
       21   -1    0    0  501  502  0.00000000000E+00  0.00000000000E+00  0.10843561154E+04  0.10843561154E+04  0.00000000000E+00 0. -1.
       21   -1    0    0  502  503  0.00000000000E+00  0.00000000000E+00 -0.26038729629E+03  0.26038729629E+03  0.00000000000E+00 0. -1.
  1000006    1    1    2  501    0 -0.12554100950E+03  0.84353501553E+02  0.88029782353E+03  0.95932284264E+03  0.35000000000E+03 0.  0.
 -1000006    1    1    2    0  503  0.12554100950E+03 -0.84353501553E+02 -0.56329004448E+02  0.38542056903E+03  0.35000000000E+03 0.  0.
<scales pt_clust_1="13000.00000" pt_clust_2="13000.00000"></scales>
<clustering>
<clus scale="  381.282">  1  3  2 -1</clus>
<clus scale="  381.282">  1  3  2 -1</clus>
</clustering>
</event>
<event>
 5   1  0.3464723E-02  0.3996614E+03  0.7816531E-02  0.1043897E+00
       21   -1    0    0  501  502  0.00000000000E+00  0.00000000000E+00  0.74617082609E+03  0.74617082609E+03  0.00000000000E+00 0.  1.
       21   -1    0    0  504  503  0.00000000000E+00  0.00000000000E+00 -0.34770230859E+03  0.34770230859E+03  0.00000000000E+00 0.  1.
  1000006    1    1    2  501    0 -0.11689025142E+03  0.16340892728E+03  0.26141669588E+03  0.48083728774E+03  0.35000000000E+03 0.  0.
 -1000006    1    1    2    0  503  0.64839188814E+02 -0.18036191708E+03 -0.64465288480E+02  0.40421567876E+03  0.35000000000E+03 0.  0.
       21    1    1    2  504  502  0.52051062603E+02  0.16952989795E+02  0.20151711010E+03  0.20882016819E+03  0.00000000000E+00 0. -1.
<scales pt_clust_1="13000.00000" pt_clust_2="13000.00000" pt_clust_3="54.74228"></scales>
<clustering>
<clus scale="   54.742">  1  5  2 -1</clus>
<clus scale="  399.661">  1  3  2 -1</clus>
<clus scale="  399.661">  1  3  2 -1</clus>
</clustering>
</event>
<event>
 5   1  0.3464723E-02  0.4212528E+03  0.7816531E-02  0.1036659E+00
       21   -1    0    0  501  503  0.00000000000E+00  0.00000000000E+00  0.45224122363E+03  0.45224122363E+03  0.00000000000E+00 0.  1.
        2   -1    0    0  503    0  0.00000000000E+00  0.00000000000E+00 -0.13394965702E+04  0.13394965702E+04  0.00000000000E+00 0.  1.
  1000006    1    1    2  501    0 -0.21340064827E+03  0.16424382803E+03  0.20875627371E+02  0.44209915578E+03  0.35000000000E+03 0.  0.
 -1000006    1    1    2    0  502  0.34624458358E+02 -0.23354082342E+03 -0.71368133516E+00  0.42218559741E+03  0.35000000000E+03 0.  0.
        2    1    1    2  502    0  0.17877618991E+03  0.69296995393E+02 -0.90741729265E+03  0.92745304067E+03  0.00000000000E+00 0.  1.
<scales pt_clust_1="13000.00000" pt_clust_2="13000.00000" pt_clust_3="191.73680"></scales>
<clustering>
<clus scale="  191.737">  2  5  1 -1</clus>
<clus scale="  421.253">  1  3  2 -1</clus>
<clus scale="  421.253">  1  3  2 -1</clus>
</clustering>
</event>
<event>
 5   1  0.3464723E-02  0.3506040E+03  0.7816531E-02  0.1062367E+00
        1   -1    0    0  501    0  0.00000000000E+00  0.00000000000E+00  0.20870996417E+04  0.20870996417E+04  0.00000000000E+00 0. -1.
       21   -1    0    0  502  503  0.00000000000E+00  0.00000000000E+00 -0.36040378405E+03  0.36040378405E+03  0.00000000000E+00 0. -1.
  1000006    1    1    2  501    0  0.10951943543E+03 -0.12584857267E+03  0.48499938161E+02  0.39074878628E+03  0.35000000000E+03 0.  0.
 -1000006    1    1    2    0  503  0.81856848282E+02 -0.71908059659E+02  0.10721156930E+02  0.36672367780E+03  0.35000000000E+03 0.  0.
        1    1    1    2  502    0 -0.19137628371E+03  0.19775663233E+03  0.16674747626E+04  0.16900309617E+04  0.00000000000E+00 0. -1.
<scales pt_clust_1="13000.00000" pt_clust_2="13000.00000" pt_clust_3="275.19551"></scales>
<clustering>
<clus scale="  275.196">  1  5  2 -1</clus>
<clus scale="  350.604">  2  4  1 -1</clus>
<clus scale="  350.604">  2  3  1 -1</clus>
</clustering>
</event>
<event>
 5   1  0.3464723E-02  0.3894765E+03  0.7816531E-02  0.1047486E+00
       21   -1    0    0  503  502  0.00000000000E+00  0.00000000000E+00  0.52160538492E+03  0.52160538492E+03  0.00000000000E+00 0. -1.
       21   -1    0    0  504  503  0.00000000000E+00  0.00000000000E+00 -0.14525284415E+04  0.14525284415E+04  0.00000000000E+00 0. -1.
  1000006    1    1    2  501    0 -0.16691667461E+03 -0.38507721200E+02 -0.75061809569E+02  0.39683535139E+03  0.35000000000E+03 0.  0.
 -1000006    1    1    2    0  502  0.11974431048E+03 -0.17632550872E+03  0.22963226311E+03  0.46974499590E+03  0.35000000000E+03 0.  0.
       21    1    1    2  504  501  0.47172364133E+02  0.21483322992E+03 -0.10854935101E+04  0.11075534791E+04  0.00000000000E+00 0. -1.
<scales pt_clust_1="13000.00000" pt_clust_2="13000.00000" pt_clust_3="219.95124"></scales>
<clustering>
<clus scale="  219.951">  2  5  1 -1</clus>
<clus scale="  389.477">  2  3  1 -1</clus>
<clus scale="  389.477">  1  3  2 -1</clus>
</clustering>
</event>
<event>
 4   0  0.3464723E-02  0.5746760E+03  0.7816531E-02  0.9959384E-01
       21   -1    0    0  503  502  0.00000000000E+00  0.00000000000E+00  0.61596420627E+03  0.61596420627E+03  0.00000000000E+00 0.  1.
       21   -1    0    0  501  503  0.00000000000E+00  0.00000000000E+00 -0.71169175520E+03  0.71169175520E+03  0.00000000000E+00 0. -1.
  1000006    1    1    2  501    0  0.41904731715E+03  0.17930947779E+03 -0.37754416063E+03  0.68759881913E+03  0.35000000000E+03 0.  0.
 -1000006    1    1    2    0  502 -0.41904731715E+03 -0.17930947779E+03  0.28181661170E+03  0.64005714234E+03  0.35000000000E+03 0.  0.
<scales pt_clust_1="13000.00000" pt_clust_2="13000.00000"></scales>
<clustering>
<clus scale="  574.676">  2  3  1 -1</clus>
<clus scale="  574.676">  1  3  2 -1</clus>
</clustering>
</event>
<event>
 5   1  0.3464723E-02  0.4023847E+03  0.7816531E-02  0.1042957E+00
       21   -1    0    0  504  502  0.00000000000E+00  0.00000000000E+00  0.15083165495E+04  0.15083165495E+04  0.00000000000E+00 0. -1.
       21   -1    0    0  501  503  0.00000000000E+00  0.00000000000E+00 -0.12963071591E+03  0.12963071591E+03  0.00000000000E+00 0. -1.
  1000006    1    1    2  501    0 -0.11383432810E+03  0.16244783238E+03  0.39883911507E+03  0.56649818377E+03  0.35000000000E+03 0.  0.
 -1000006    1    1    2    0  502  0.89065624771E+02 -0.17946728537E+03  0.90475124083E+03  0.99056347592E+03  0.35000000000E+03 0.  0.
       21    1    1    2  504  503  0.24768703328E+02  0.17019452988E+02  0.75095477711E+02  0.80885605748E+02  0.00000000000E+00 0. -1.
<scales pt_clust_1="13000.00000" pt_clust_2="13000.00000" pt_clust_3="30.05246"></scales>
<clustering>
<clus scale="   30.052">  1  5  2 -1</clus>
<clus scale="  402.385">  1  4  2 -1</clus>
<clus scale="  402.385">  1  3  2 -1</clus>
</clustering>
</event>
<event>
 6   2  0.3464723E-02  0.4578058E+03  0.7816531E-02  0.1025420E+00
       21   -1    0    0  502  503  0.00000000000E+00  0.00000000000E+00  0.62131955458E+03  0.62131955458E+03  0.00000000000E+00 0. -1.
        2   -1    0    0  504    0  0.00000000000E+00  0.00000000000E+00 -0.14378066275E+04  0.14378066275E+04  0.00000000000E+00 0. -1.
  1000006    1    1    2  501    0  0.21119617111E+03 -0.18775100823E+03 -0.19856082808E+03  0.49171197487E+03  0.35000000000E+03 0.  0.
 -1000006    1    1    2    0  503 -0.32426413964E+03 -0.16603683230E+03  0.26309758714E+03  0.56959266348E+03  0.35000000000E+03 0.  0.
       21    1    1    2  504  501  0.11010044092E+03  0.28102132305E+01 -0.14219586960E+03  0.17986013933E+03  0.00000000000E+00 0. -1.
        2    1    1    2  502    0  0.29675276046E+01  0.35097762730E+03 -0.73882796237E+03  0.81796140439E+03  0.00000000000E+00 0. -1.
<scales pt_clust_1="13000.00000" pt_clust_2="13000.00000" pt_clust_3="110.13630" pt_clust_4="359.58808"></scales>
<clustering>
<clus scale="  110.136">  2  5  1 -1</clus>
<clus scale="  359.588">  2  6  1 -1</clus>
<clus scale="  457.806">  2  3  1 -1</clus>
<clus scale="  457.806">  1  3  2 -1</clus>
</clustering>
</event>
<event>
 5   1  0.3464723E-02  0.3542471E+03  0.7816531E-02  0.1060885E+00
        2   -1    0    0  503    0  0.00000000000E+00  0.00000000000E+00  0.12926843550E+04  0.12926843550E+04  0.00000000000E+00 0. -1.
       21   -1    0    0  501  503  0.00000000000E+00  0.00000000000E+00 -0.46903279504E+03  0.46903279504E+03  0.00000000000E+00 0. -1.
  1000006    1    1    2  501    0 -0.19401786810E+02 -0.48474216563E+02 -0.35875438572E+03  0.50391555669E+03  0.35000000000E+03 0.  0.
 -1000006    1    1    2    0  502  0.49963706198E+02  0.71277739796E+02  0.85185933292E+03  0.92506281474E+03  0.35000000000E+03 0.  0.
        2    1    1    2  502    0 -0.30561919388E+02 -0.22803523233E+02  0.33054661275E+03  0.33273877860E+03  0.00000000000E+00 0. -1.
<scales pt_clust_1="13000.00000" pt_clust_2="13000.00000" pt_clust_3="38.13177"></scales>
<clustering>
<clus scale="   38.132">  1  5  2 -1</clus>
<clus scale="  354.247">  2  3  1 -1</clus>
<clus scale="  354.247">  2  3  1 -1</clus>
</clustering>
</event>
<event>
 4   0  0.3464723E-02  0.4147352E+03  0.7816531E-02  0.1038794E+00
       21   -1    0    0  501  502  0.00000000000E+00  0.00000000000E+00  0.37483796772E+03  0.37483796772E+03  0.00000000000E+00 0. -1.
       21   -1    0    0  502  503  0.00000000000E+00  0.00000000000E+00 -0.56532647368E+03  0.56532647368E+03  0.00000000000E+00 0. -1.
  1000006    1    1    2  501    0 -0.12882507085E+03 -0.18140934717E+03  0.10873780135E+03  0.42875302863E+03  0.35000000000E+03 0.  0.
 -1000006    1    1    2    0  503  0.12882507085E+03  0.18140934717E+03 -0.29922630732E+03  0.51141141277E+03  0.35000000000E+03 0.  0.
<scales pt_clust_1="13000.00000" pt_clust_2="13000.00000"></scales>
<clustering>
<clus scale="  414.735">  1  3  2 -1</clus>
<clus scale="  414.735">  1  3  2 -1</clus>
</clustering>
</event>
<event>
 5   1  0.3464723E-02  0.4109750E+03  0.7816531E-02  0.1040044E+00
       21   -1    0    0  504  502  0.00000000000E+00  0.00000000000E+00  0.89428297248E+03  0.89428297248E+03  0.00000000000E+00 0. -1.
       21   -1    0    0  501  503  0.00000000000E+00  0.00000000000E+00 -0.50257245203E+03  0.50257245203E+03  0.00000000000E+00 0.  1.
  1000006    1    1    2  501    0 -0.22471622777E+03 -0.23753866097E+02 -0.15967429816E+03  0.44615861604E+03  0.35000000000E+03 0.  0.
 -1000006    1    1    2    0  502  0.20163437439E+03 -0.47061125608E+02  0.12668299102E+02  0.40685581756E+03  0.35000000000E+03 0.  0.
       21    1    1    2  504  503  0.23081853376E+02  0.70814991706E+02  0.53871651951E+03  0.54384099091E+03  0.00000000000E+00 0. -1.
<scales pt_clust_1="13000.00000" pt_clust_2="13000.00000" pt_clust_3="74.48178"></scales>
<clustering>
<clus scale="   74.482">  1  5  2 -1</clus>
<clus scale="  410.975">  2  3  1 -1</clus>
<clus scale="  410.975">  1  3  2 -1</clus>
</clustering>
</event>
<event>
 4   0  0.3464723E-02  0.3504791E+03  0.7816531E-02  0.1062419E+00
       21   -1    0    0  503  502  0.00000000000E+00  0.00000000000E+00  0.41877355578E+03  0.41877355578E+03  0.00000000000E+00 0. -1.
       21   -1    0    0  501  503  0.00000000000E+00  0.00000000000E+00 -0.36096118759E+03  0.36096118759E+03  0.00000000000E+00 0. -1.
  1000006    1    1    2  501    0 -0.17705823278E+02 -0.47016455470E+01 -0.13985984244E+03  0.37735444502E+03  0.35000000000E+03 0.  0.
 -1000006    1    1    2    0  502  0.17705823278E+02  0.47016455470E+01  0.19767221063E+03  0.40238029835E+03  0.35000000000E+03 0.  0.
<scales pt_clust_1="13000.00000" pt_clust_2="13000.00000"></scales>
<clustering>
<clus scale="  350.479">  2  3  1 -1</clus>
<clus scale="  350.479">  1  3  2 -1</clus>
</clustering>
</event>
<event>
 4   0  0.3464723E-02  0.4567210E+03  0.7816531E-02  0.1025737E+00
       21   -1    0    0  503  502  0.00000000000E+00  0.00000000000E+00  0.33763107473E+03  0.33763107473E+03  0.00000000000E+00 0.  1.
       21   -1    0    0  501  503  0.00000000000E+00  0.00000000000E+00 -0.78515081635E+03  0.78515081635E+03  0.00000000000E+00 0.  1.
  1000006    1    1    2  501    0 -0.49162715540E+02  0.28926998458E+03 -0.48292775548E+03  0.66469038928E+03  0.35000000000E+03 0.  0.
 -1000006    1    1    2    0  502  0.49162715540E+02 -0.28926998458E+03  0.35408013865E+02  0.45809150180E+03  0.35000000000E+03 0.  0.
<scales pt_clust_1="13000.00000" pt_clust_2="13000.00000"></scales>
<clustering>
<clus scale="  456.721">  2  3  1 -1</clus>
<clus scale="  456.721">  1  3  2 -1</clus>
</clustering>
</event>
<event>
 4   0  0.3464723E-02  0.3682741E+03  0.7816531E-02  0.1055355E+00
       21   -1    0    0  503  502  0.00000000000E+00  0.00000000000E+00  0.45100576647E+03  0.45100576647E+03  0.00000000000E+00 0.  1.
       21   -1    0    0  501  503  0.00000000000E+00  0.00000000000E+00 -0.30097886918E+03  0.30097886918E+03  0.00000000000E+00 0.  1.
  1000006    1    1    2  501    0 -0.68858676495E+02 -0.91565621590E+02  0.63954837795E+02  0.37378603728E+03  0.35000000000E+03 0.  0.
 -1000006    1    1    2    0  502  0.68858676495E+02  0.91565621590E+02  0.86072059498E+02  0.37819859837E+03  0.35000000000E+03 0.  0.
<scales pt_clust_1="13000.00000" pt_clust_2="13000.00000"></scales>
<clustering>
<clus scale="  368.274">  2  3  1 -1</clus>
<clus scale="  368.274">  1  3  2 -1</clus>
</clustering>
</event>
<event>
 5   1  0.3464723E-02  0.4113782E+03  0.7816531E-02  0.1039910E+00
       21   -1    0    0  501  502  0.00000000000E+00  0.00000000000E+00  0.70819763943E+03  0.70819763943E+03  0.00000000000E+00 0.  1.
       21   -1    0    0  504  503  0.00000000000E+00  0.00000000000E+00 -0.33698522150E+03  0.33698522150E+03  0.00000000000E+00 0.  1.
  1000006    1    1    2  501    0 -0.22779365052E+03  0.69245050456E+02  0.35699082033E+03  0.55373935207E+03  0.35000000000E+03 0.  0.
 -1000006    1    1    2    0  503  0.15436336632E+03 -0.98573972549E+02  0.60795005375E+02  0.39967600579E+03  0.35000000000E+03 0.  0.
       21    1    1    2  504  502  0.73430284197E+02  0.29328922093E+02 -0.46573407770E+02  0.91767503070E+02  0.00000000000E+00 0.  1.
<scales pt_clust_1="13000.00000" pt_clust_2="13000.00000" pt_clust_3="79.07081"></scales>
<clustering>
<clus scale="   79.071">  2  5  1 -1</clus>
<clus scale="  411.378">  1  3  2 -1</clus>
<clus scale="  411.378">  1  3  2 -1</clus>
</clustering>
</event>
<event>
 5   1  0.3464723E-02  0.3907817E+03  0.7816531E-02  0.1047019E+00
       21   -1    0    0  503  502  0.00000000000E+00  0.00000000000E+00  0.26708273457E+03  0.26708273457E+03  0.00000000000E+00 0.  1.
       21   -1    0    0  504  503  0.00000000000E+00  0.00000000000E+00 -0.71733884213E+03  0.71733884213E+03  0.00000000000E+00 0.  1.
  1000006    1    1    2  501    0 -0.10983025426E+02  0.18177510827E+03 -0.23459470319E+03  0.45901796435E+03  0.35000000000E+03 0.  0.
 -1000006    1    1    2    0  502  0.37057422972E+02 -0.16473808463E+03 -0.93988224808E+02  0.39980704787E+03  0.35000000000E+03 0.  0.
       21    1    1    2  504  501 -0.26074397546E+02 -0.17037023639E+02 -0.12167317956E+03  0.12559656447E+03  0.00000000000E+00 0.  1.
<scales pt_clust_1="13000.00000" pt_clust_2="13000.00000" pt_clust_3="31.14698"></scales>
<clustering>
<clus scale="   31.147">  2  5  1 -1</clus>
<clus scale="  390.782">  2  3  1 -1</clus>
<clus scale="  390.782">  1  3  2 -1</clus>
</clustering>
</event>
<event>
 5   1  0.3464723E-02  0.3575806E+03  0.7816531E-02  0.1059546E+00
       21   -1    0    0  501  502  0.00000000000E+00  0.00000000000E+00  0.81245020014E+03  0.81245020014E+03  0.00000000000E+00 0.  1.
       21   -1    0    0  504  503  0.00000000000E+00  0.00000000000E+00 -0.75743571698E+03  0.75743571698E+03  0.00000000000E+00 0. -1.
  1000006    1    1    2  501    0 -0.54779016994E+02  0.60155833539E+02  0.66393081182E+03  0.75493283668E+03  0.35000000000E+03 0.  0.
 -1000006    1    1    2    0  503 -0.47208609381E+02 -0.55920795984E+02 -0.23626741423E+03  0.42857680671E+03  0.35000000000E+03 0.  0.
       21    1    1    2  504  502  0.10198762638E+03 -0.42350375549E+01 -0.37264891443E+03  0.38637627374E+03  0.00000000000E+00 0. -1.
<scales pt_clust_1="13000.00000" pt_clust_2="13000.00000" pt_clust_3="102.07552"></scales>
<clustering>
<clus scale="  102.076">  2  5  1 -1</clus>
<clus scale="  357.581">  1  3  2 -1</clus>
<clus scale="  357.581">  1  3  2 -1</clus>
</clustering>
</event>
<event>
 6   2  0.3464723E-02  0.6144514E+03  0.7816531E-02  0.9875869E-01
       21   -1    0    0  504  503  0.00000000000E+00  0.00000000000E+00  0.15867918459E+04  0.15867918459E+04  0.00000000000E+00 0.  1.
        1   -1    0    0  501    0  0.00000000000E+00  0.00000000000E+00 -0.77412997636E+03  0.77412997636E+03  0.00000000000E+00 0.  1.
  1000006    1    1    2  501    0 -0.12776565680E+03 -0.36150744988E+03 -0.31287950463E+02  0.52008714195E+03  0.35000000000E+03 0.  0.
 -1000006    1    1    2    0  503  0.49234959281E+03  0.28508088656E+03  0.11668369004E+04  0.13445027280E+04  0.35000000000E+03 0.  0.
       21    1    1    2  504  502 -0.99329587441E+02  0.33255671466E+02 -0.61668711314E+02  0.12155384231E+03  0.00000000000E+00 0. -1.
        1    1    1    2  502    0 -0.26525434857E+03  0.43170891859E+02 -0.26121836913E+03  0.37477810997E+03  0.00000000000E+00 0.  1.
<scales pt_clust_1="13000.00000" pt_clust_2="13000.00000" pt_clust_3="36.00998" pt_clust_4="376.94740"></scales>
<clustering>
<clus scale="   36.010">  5  6 -1 -1</clus>
<clus scale="  376.947">  2  5  1 -1</clus>
<clus scale="  614.451">  2  3  1 -1</clus>
<clus scale="  614.451">  1  3  2 -1</clus>
</clustering>
</event>
<event>
 5   1  0.3464723E-02  0.4198681E+03  0.7816531E-02  0.1037109E+00
       21   -1    0    0  501  502  0.00000000000E+00  0.00000000000E+00  0.20921551627E+04  0.20921551627E+04  0.00000000000E+00 0. -1.
       21   -1    0    0  504  503  0.00000000000E+00  0.00000000000E+00 -0.13117305165E+04  0.13117305165E+04  0.00000000000E+00 0.  1.
  1000006    1    1    2  501    0  0.22937487229E+03 -0.13012235975E+03 -0.27396375766E+03  0.51681795736E+03  0.35000000000E+03 0.  0.
 -1000006    1    1    2    0  503 -0.20973900693E+03  0.69666077833E+02 -0.86904102304E+03  0.96258823655E+03  0.35000000000E+03 0.  0.
       21    1    1    2  504  502 -0.19635865361E+02  0.60456281919E+02  0.19234294269E+04  0.19244794853E+04  0.00000000000E+00 0. -1.
<scales pt_clust_1="13000.00000" pt_clust_2="13000.00000" pt_clust_3="63.56516"></scales>
<clustering>
<clus scale="   63.565">  1  5  2 -1</clus>
<clus scale="  419.868">  2  4  1 -1</clus>
<clus scale="  419.868">  1  3  2 -1</clus>
</clustering>
</event>
<event>
 6   2  0.3464723E-02  0.5344335E+03  0.7816531E-02  0.1005163E+00
       21   -1    0    0  504  502  0.00000000000E+00  0.00000000000E+00  0.78936190576E+03  0.78936190576E+03  0.00000000000E+00 0. -1.
       21   -1    0    0  501  503  0.00000000000E+00  0.00000000000E+00 -0.78679418382E+03  0.78679418382E+03  0.00000000000E+00 0.  1.
  1000006    1    1    2  501    0 -0.30799557722E+03 -0.24662271948E+03 -0.42107765460E+03  0.67490031305E+03  0.35000000000E+03 0.  0.
 -1000006    1    1    2    0  505  0.30804521811E+03  0.30045282363E+03  0.11420150773E+03  0.56630887332E+03  0.35000000000E+03 0.  0.
       21    1    1    2  504  503 -0.27011758106E+02 -0.29973686737E+02  0.29230066937E+03  0.29507242888E+03  0.00000000000E+00 0. -1.
       21    1    1    2  505  502  0.26962117212E+02 -0.23856417412E+02  0.17143199442E+02  0.39874474334E+02  0.00000000000E+00 0. -1.
<scales pt_clust_1="13000.00000" pt_clust_2="13000.00000" pt_clust_3="42.55528" pt_clust_4="36.00117"></scales>
<clustering>
<clus scale="   36.001">  1  6  2 -1</clus>
<clus scale="   42.555">  1  5  2 -1</clus>
<clus scale="  534.434">  2  3  1 -1</clus>
<clus scale="  534.434">  1  3  2 -1</clus>
</clustering>
</event>
<event>
 5   1  0.3464723E-02  0.3755525E+03  0.7816531E-02  0.1052590E+00
       21   -1    0    0  504  502  0.00000000000E+00  0.00000000000E+00  0.16282593040E+04  0.16282593040E+04  0.00000000000E+00 0. -1.
       21   -1    0    0  501  503  0.00000000000E+00  0.00000000000E+00 -0.57043634516E+03  0.57043634516E+03  0.00000000000E+00 0. -1.
  1000006    1    1    2  501    0  0.42526974768E+02  0.29286157450E+02  0.13681503440E+03  0.37932120457E+03  0.35000000000E+03 0.  0.
 -1000006    1    1    2    0  502  0.20256899736E+02  0.17482868072E+03  0.13145175710E+04  0.13716529642E+04  0.35000000000E+03 0.  0.
       21    1    1    2  504  503 -0.62783874504E+02 -0.20411483817E+03 -0.39350964660E+03  0.44772148041E+03  0.00000000000E+00 0. -1.
<scales pt_clust_1="13000.00000" pt_clust_2="13000.00000" pt_clust_3="213.55253"></scales>
<clustering>
<clus scale="  213.553">  2  5  1 -1</clus>
<clus scale="  375.553">  2  3  1 -1</clus>
<clus scale="  375.553">  1  3  2 -1</clus>
</clustering>
</event>
<event>
 4   0  0.3464723E-02  0.3969391E+03  0.7816531E-02  0.1044845E+00
       21   -1    0    0  503  502  0.00000000000E+00  0.00000000000E+00  0.60784661909E+03  0.60784661909E+03  0.00000000000E+00 0. -1.
       21   -1    0    0  501  503  0.00000000000E+00  0.00000000000E+00 -0.27955926781E+03  0.27955926781E+03  0.00000000000E+00 0. -1.
  1000006    1    1    2  501    0 -0.47472712994E+01  0.18718462619E+03  0.44437242763E+02  0.39941868936E+03  0.35000000000E+03 0.  0.
 -1000006    1    1    2    0  502  0.47472712994E+01 -0.18718462619E+03  0.28385010851E+03  0.48798719754E+03  0.35000000000E+03 0.  0.
<scales pt_clust_1="13000.00000" pt_clust_2="13000.00000"></scales>
<clustering>
<clus scale="  396.939">  2  3  1 -1</clus>
<clus scale="  396.939">  1  3  2 -1</clus>
</clustering>
</event>
<event>
 4   0  0.3464723E-02  0.3756440E+03  0.7816531E-02  0.1052556E+00
        2   -1    0    0  502    0  0.00000000000E+00  0.00000000000E+00  0.72775639915E+03  0.72775639915E+03  0.00000000000E+00 0. -1.
       -2   -1    0    0    0  501  0.00000000000E+00  0.00000000000E+00 -0.19399644425E+03  0.19399644425E+03  0.00000000000E+00 0.  1.
  1000006    1    1    2  502    0  0.11578824996E+03 -0.72121462949E+02  0.27741208130E+03  0.46697525320E+03  0.35000000000E+03 0.  0.
 -1000006    1    1    2    0  501 -0.11578824996E+03  0.72121462949E+02  0.25634787361E+03  0.45477759020E+03  0.35000000000E+03 0.  0.
<scales pt_clust_1="13000.00000" pt_clust_2="13000.00000"></scales>
<clustering>
<clus scale="  444.104">  3  4 -1 -1</clus>
<clus scale="  375.644">  1  3  2 -1</clus>
</clustering>
</event>
<event>
 5   1  0.3464723E-02  0.4330040E+03  0.7816531E-02  0.1032915E+00
       21   -1    0    0  501  502  0.00000000000E+00  0.00000000000E+00  0.50242242144E+03  0.50242242144E+03  0.00000000000E+00 0.  1.
       21   -1    0    0  504  503  0.00000000000E+00  0.00000000000E+00 -0.45831324954E+03  0.45831324954E+03  0.00000000000E+00 0. -1.
  1000006    1    1    2  501    0  0.25896603530E+03  0.35817015228E+02  0.17428546788E+03  0.47034209926E+03  0.35000000000E+03 0.  0.
 -1000006    1    1    2    0  503 -0.24495682996E+03  0.70309823283E+01 -0.11130113759E+03  0.44152149040E+03  0.35000000000E+03 0.  0.
       21    1    1    2  504  502 -0.14009205337E+02 -0.42847997556E+02 -0.18875158379E+02  0.48872081321E+02  0.00000000000E+00 0.  1.
<scales pt_clust_1="13000.00000" pt_clust_2="13000.00000" pt_clust_3="45.08003"></scales>
<clustering>
<clus scale="   45.080">  2  5  1 -1</clus>
<clus scale="  433.004">  2  4  1 -1</clus>
<clus scale="  433.004">  1  3  2 -1</clus>
</clustering>
</event>
<event>
 6   2  0.3464723E-02  0.3717221E+03  0.7816531E-02  0.1054036E+00
       -1   -1    0    0    0  501  0.00000000000E+00  0.00000000000E+00  0.27769863649E+04  0.27769863649E+04  0.00000000000E+00 0. -1.
       21   -1    0    0  504  503  0.00000000000E+00  0.00000000000E+00 -0.40857407270E+03  0.40857407270E+03  0.00000000000E+00 0. -1.
  1000006    1    1    2  502    0  0.10008157404E+03  0.25330089918E+02  0.22410922205E+03  0.42823227147E+03  0.35000000000E+03 0.  0.
 -1000006    1    1    2    0  503 -0.11448881759E+03 -0.70293576632E+02 -0.18660327558E+03  0.41877160688E+03  0.35000000000E+03 0.  0.
       21    1    1    2  504  501  0.24792248536E+02 -0.48420091298E+02  0.26557206842E+03  0.27108611981E+03  0.00000000000E+00 0. -1.
       -1    1    1    2    0  502 -0.10385004980E+02  0.93383578012E+02  0.20653342773E+04  0.20674704395E+04  0.00000000000E+00 0. -1.
<scales pt_clust_1="13000.00000" pt_clust_2="13000.00000" pt_clust_3="54.39817" pt_clust_4="54.43283"></scales>
<clustering>
<clus scale="   54.398">  1  5  2 -1</clus>
<clus scale="   54.433">  1  6  2 -1</clus>
<clus scale="  371.722">  1  3  2 -1</clus>
<clus scale="  371.722">  2  3  1 -1</clus>
</clustering>
</event>
<event>
 6   2  0.3464723E-02  0.6586864E+03  0.7816531E-02  0.9790615E-01
        2   -1    0    0  504    0  0.00000000000E+00  0.00000000000E+00  0.13882518587E+04  0.13882518587E+04  0.00000000000E+00 0.  1.
       21   -1    0    0  501  503  0.00000000000E+00  0.00000000000E+00 -0.12464342610E+04  0.12464342610E+04  0.00000000000E+00 0. -1.
  1000006    1    1    2  501    0  0.43038793464E+03 -0.28020837314E+03 -0.44700376034E+03  0.76554743055E+03  0.35000000000E+03 0.  0.
 -1000006    1    1    2    0  502 -0.58025349784E+03  0.26540874730E+03  0.17787641864E+03  0.74918351904E+03  0.35000000000E+03 0.  0.
       21    1    1    2  504  503  0.19080176502E+02 -0.25730234715E+02 -0.34763984854E+03  0.34911253545E+03  0.00000000000E+00 0. -1.
        2    1    1    2  502    0  0.13078538670E+03  0.40529860553E+02  0.75858478795E+03  0.77084263470E+03  0.00000000000E+00 0.  1.
<scales pt_clust_1="13000.00000" pt_clust_2="13000.00000" pt_clust_3="32.03277" pt_clust_4="136.99402"></scales>
<clustering>
<clus scale="   32.033">  2  5  1 -1</clus>
<clus scale="  136.994">  1  6  2 -1</clus>
<clus scale="  658.686">  1  4  2 -1</clus>
<clus scale="  658.686">  2  3  1 -1</clus>
</clustering>
</event>
<event>
 5   1  0.3464723E-02  0.4787824E+03  0.7816531E-02  0.1019470E+00
       -2   -1    0    0    0  501  0.00000000000E+00  0.00000000000E+00  0.79007389213E+03  0.79007389213E+03  0.00000000000E+00 0.  1.
        2   -1    0    0  502    0  0.00000000000E+00  0.00000000000E+00 -0.10324288646E+04  0.10324288646E+04  0.00000000000E+00 0. -1.
  1000006    1    1    2  502    0  0.14030359008E+02  0.37870846148E+03  0.54470133486E+03  0.75021096630E+03  0.35000000000E+03 0.  0.
 -1000006    1    1    2    0  503  0.56571909035E+02 -0.31738116078E+03 -0.83956584646E+03  0.96503989174E+03  0.35000000000E+03 0.  0.
       21    1    1    2  503  501 -0.70602268044E+02 -0.61327300703E+02  0.52509539152E+02  0.10725189866E+03  0.00000000000E+00 0.  1.
<scales pt_clust_1="13000.00000" pt_clust_2="13000.00000" pt_clust_3="93.51854"></scales>
<clustering>
<clus scale="   93.519">  1  5  2 -1</clus>
<clus scale=" 1574.451">  3  4 -1 -1</clus>
<clus scale="  478.782">  2  3  1 -1</clus>
</clustering>
</event>
<event>
 5   1  0.3464723E-02  0.7436554E+03  0.7816531E-02  0.9645357E-01
        2   -1    0    0  502    0  0.00000000000E+00  0.00000000000E+00  0.17597810268E+04  0.17597810268E+04  0.00000000000E+00 0.  1.
       -2   -1    0    0    0  501  0.00000000000E+00  0.00000000000E+00 -0.34760643857E+03  0.34760643857E+03  0.00000000000E+00 0. -1.
  1000006    1    1    2  502    0 -0.61481826564E+03  0.21150012377E+03  0.59967855978E+03  0.95123507987E+03  0.35000000000E+03 0.  0.
 -1000006    1    1    2    0  503  0.61556879528E+03 -0.24157049990E+03  0.83305724911E+03  0.11197167626E+04  0.35000000000E+03 0.  0.
       21    1    1    2  503  501 -0.75052963862E+00  0.30070376130E+02 -0.20561220704E+02  0.36435622846E+02  0.00000000000E+00 0. -1.
<scales pt_clust_1="13000.00000" pt_clust_2="13000.00000" pt_clust_3="30.07974"></scales>
<clustering>
<clus scale="   30.080">  2  5  1 -1</clus>
<clus scale=" 1366.640">  3  4 -1 -1</clus>
<clus scale="  743.655">  1  3  2 -1</clus>
</clustering>
</event>
<event>
 5   1  0.3464723E-02  0.3571428E+03  0.7816531E-02  0.1059721E+00
        1   -1    0    0  503    0  0.00000000000E+00  0.00000000000E+00  0.20932937020E+04  0.20932937020E+04  0.00000000000E+00 0. -1.
       21   -1    0    0  501  503  0.00000000000E+00  0.00000000000E+00 -0.26991798755E+03  0.26991798755E+03  0.00000000000E+00 0.  1.
  1000006    1    1    2  501    0 -0.80922807661E+02 -0.40257885312E+02 -0.20538544578E+02  0.36206495266E+03  0.35000000000E+03 0.  0.
 -1000006    1    1    2    0  502  0.44996514383E+02 -0.10364149343E+03  0.37674813112E+03  0.52650299123E+03  0.35000000000E+03 0.  0.
        1    1    1    2  502    0  0.35926293277E+02  0.14389937874E+03  0.14671661280E+04  0.14746437457E+04  0.00000000000E+00 0. -1.
<scales pt_clust_1="13000.00000" pt_clust_2="13000.00000" pt_clust_3="148.31632"></scales>
<clustering>
<clus scale="  148.316">  1  5  2 -1</clus>
<clus scale="  357.143">  1  4  2 -1</clus>
<clus scale="  357.143">  2  3  1 -1</clus>
</clustering>
</event>
<event>
 4   0  0.3464723E-02  0.3863235E+03  0.7816531E-02  0.1048621E+00
       21   -1    0    0  501  502  0.00000000000E+00  0.00000000000E+00  0.24755669002E+03  0.24755669002E+03  0.00000000000E+00 0.  1.
       21   -1    0    0  502  503  0.00000000000E+00  0.00000000000E+00 -0.72472879900E+03  0.72472879900E+03  0.00000000000E+00 0.  1.
  1000006    1    1    2  501    0 -0.10618311500E+03 -0.12438252749E+03 -0.39245956565E+02  0.38831187487E+03  0.35000000000E+03 0.  0.
 -1000006    1    1    2    0  503  0.10618311500E+03  0.12438252749E+03 -0.43792615242E+03  0.58397361415E+03  0.35000000000E+03 0.  0.
<scales pt_clust_1="13000.00000" pt_clust_2="13000.00000"></scales>
<clustering>
<clus scale="  386.324">  1  3  2 -1</clus>
<clus scale="  386.324">  1  3  2 -1</clus>
</clustering>
</event>
<event>
 4   0  0.3464723E-02  0.3629627E+03  0.7816531E-02  0.1057417E+00
       21   -1    0    0  503  502  0.00000000000E+00  0.00000000000E+00  0.55645813165E+03  0.55645813165E+03  0.00000000000E+00 0.  1.
       21   -1    0    0  501  503  0.00000000000E+00  0.00000000000E+00 -0.29951685464E+03  0.29951685464E+03  0.00000000000E+00 0.  1.
  1000006    1    1    2  501    0  0.76379308817E+02  0.58378979201E+02 -0.67451216380E+02  0.36917688256E+03  0.35000000000E+03 0.  0.
 -1000006    1    1    2    0  502 -0.76379308817E+02 -0.58378979201E+02  0.32439249339E+03  0.48679810373E+03  0.35000000000E+03 0.  0.
<scales pt_clust_1="13000.00000" pt_clust_2="13000.00000"></scales>
<clustering>
<clus scale="  362.963">  2  3  1 -1</clus>
<clus scale="  362.963">  1  3  2 -1</clus>
</clustering>
</event>
<event>
 5   1  0.3464723E-02  0.3655502E+03  0.7816531E-02  0.1056408E+00
       21   -1    0    0  504  502  0.00000000000E+00  0.00000000000E+00  0.25916272612E+03  0.25916272612E+03  0.00000000000E+00 0.  1.
       21   -1    0    0  502  503  0.00000000000E+00  0.00000000000E+00 -0.80343549240E+03  0.80343549240E+03  0.00000000000E+00 0.  1.
  1000006    1    1    2  501    0  0.62753411306E+02  0.11411585873E+03 -0.26099438617E+02  0.37435491254E+03  0.35000000000E+03 0.  0.
 -1000006    1    1    2    0  503 -0.44889363963E+02 -0.86661728738E+02 -0.53855394841E+03  0.64966581068E+03  0.35000000000E+03 0.  0.
       21    1    1    2  504  501 -0.17864047343E+02 -0.27454129996E+02  0.20380620748E+02  0.38577495297E+02  0.00000000000E+00 0. -1.
<scales pt_clust_1="13000.00000" pt_clust_2="13000.00000" pt_clust_3="32.75444"></scales>
<clustering>
<clus scale="   32.754">  1  5  2 -1</clus>
<clus scale="  365.550">  1  3  2 -1</clus>
<clus scale="  365.550">  1  3  2 -1</clus>
</clustering>
</event>
<event>
 4   0  0.3464723E-02  0.5048933E+03  0.7816531E-02  0.1012510E+00
       21   -1    0    0  501  502  0.00000000000E+00  0.00000000000E+00  0.10453256841E+04  0.10453256841E+04  0.00000000000E+00 0. -1.
       21   -1    0    0  502  503  0.00000000000E+00  0.00000000000E+00 -0.24536478316E+03  0.24536478316E+03  0.00000000000E+00 0.  1.
  1000006    1    1    2  501    0  0.28884026469E+03 -0.22133349692E+03  0.45045320945E+03  0.67662789572E+03  0.35000000000E+03 0.  0.
 -1000006    1    1    2    0  503 -0.28884026469E+03  0.22133349692E+03  0.34950769152E+03  0.61406257156E+03  0.35000000000E+03 0.  0.
<scales pt_clust_1="13000.00000" pt_clust_2="13000.00000"></scales>
<clustering>
<clus scale="  504.893">  1  3  2 -1</clus>
<clus scale="  504.893">  1  3  2 -1</clus>
</clustering>
</event>
<event>
 6   2  0.3464723E-02  0.3605611E+03  0.7816531E-02  0.1058362E+00
       21   -1    0    0  501  502  0.00000000000E+00  0.00000000000E+00  0.16353429752E+04  0.16353429752E+04  0.00000000000E+00 0. -1.
       21   -1    0    0  504  503  0.00000000000E+00  0.00000000000E+00 -0.13579724168E+04  0.13579724168E+04  0.00000000000E+00 0. -1.
  1000006    1    1    2  501    0  0.27232143964E+02 -0.12650302173E+03  0.83132063178E+03  0.91122916821E+03  0.35000000000E+03 0.  0.
 -1000006    1    1    2    0  503 -0.59446392252E+02  0.21828187910E+02  0.71973312938E+03  0.80282384174E+03  0.35000000000E+03 0.  0.
       21    1    1    2  504  505  0.14177873055E+02  0.67619786058E+02 -0.10118225046E+04  0.10141785979E+04  0.00000000000E+00 0. -1.
       21    1    1    2  505  502  0.18036375233E+02  0.37055047763E+02 -0.26186069821E+03  0.26508378423E+03  0.00000000000E+00 0. -1.
<scales pt_clust_1="13000.00000" pt_clust_2="13000.00000" pt_clust_3="119.34547" pt_clust_4="36.62460"></scales>
<clustering>
<clus scale="   36.625">  5  6 -1 -1</clus>
<clus scale="  119.345">  2  5  1 -1</clus>
<clus scale="  360.561">  2  4  1 -1</clus>
<clus scale="  360.561">  1  3  2 -1</clus>
</clustering>
</event>
<event>
 6   2  0.3464723E-02  0.4030512E+03  0.7816531E-02  0.1042728E+00
       21   -1    0    0  501  502  0.00000000000E+00  0.00000000000E+00  0.38870889898E+03  0.38870889898E+03  0.00000000000E+00 0. -1.
       21   -1    0    0  505  503  0.00000000000E+00  0.00000000000E+00 -0.96173466052E+03  0.96173466052E+03  0.00000000000E+00 0. -1.
  1000006    1    1    2  501    0  0.11456766310E+02 -0.13787192103E+03  0.14003991317E+03  0.40156083149E+03  0.35000000000E+03 0.  0.
 -1000006    1    1    2    0  503  0.86069965215E+02  0.21457087665E+03 -0.60910479454E+03  0.73956565006E+03  0.35000000000E+03 0.  0.
       21    1    1    2  504  502 -0.11320520721E+03 -0.51001383582E+02 -0.27539988064E+02  0.12718101670E+03  0.00000000000E+00 0. -1.
       21    1    1    2  505  504  0.15678475684E+02 -0.25697572037E+02 -0.76420892111E+02  0.82136061261E+02  0.00000000000E+00 0.  1.
<scales pt_clust_1="13000.00000" pt_clust_2="13000.00000" pt_clust_3="123.86332" pt_clust_4="30.10282"></scales>
<clustering>
<clus scale="   30.103">  2  6  1 -1</clus>
<clus scale="  123.863">  1  5  2 -1</clus>
<clus scale="  403.051">  2  4  1 -1</clus>
<clus scale="  403.051">  1  3  2 -1</clus>
</clustering>
</event>
<event>
 6   2  0.3464723E-02  0.3746694E+03  0.7816531E-02  0.1052922E+00
       21   -1    0    0  501  502  0.00000000000E+00  0.00000000000E+00  0.30016086370E+03  0.30016086370E+03  0.00000000000E+00 0. -1.
       21   -1    0    0  505  503  0.00000000000E+00  0.00000000000E+00 -0.70349894460E+03  0.70349894460E+03  0.00000000000E+00 0. -1.
  1000006    1    1    2  501    0  0.62173974170E+02 -0.12974699881E+03 -0.12560119817E+02  0.37862599405E+03  0.35000000000E+03 0.  0.
 -1000006    1    1    2    0  504 -0.30153097373E+02  0.11345567053E+03 -0.24058546236E+03  0.44063903953E+03  0.35000000000E+03 0.  0.
       21    1    1    2  504  503 -0.26239297699E+01 -0.36870098088E+02 -0.96435391248E+02  0.10327668578E+03  0.00000000000E+00 0. -1.
       21    1    1    2  505  502 -0.29396947027E+02  0.53161426371E+02 -0.53757107472E+02  0.81118088932E+02  0.00000000000E+00 0. -1.
<scales pt_clust_1="13000.00000" pt_clust_2="13000.00000" pt_clust_3="36.96335" pt_clust_4="57.32937"></scales>
<clustering>
<clus scale="   36.963">  2  5  1 -1</clus>
<clus scale="   57.329">  2  6  1 -1</clus>
<clus scale="  374.669">  1  3  2 -1</clus>
<clus scale="  374.669">  1  3  2 -1</clus>
</clustering>
</event>
<event>
 5   1  0.3464723E-02  0.4243598E+03  0.7816531E-02  0.1035657E+00
       21   -1    0    0  504  502  0.00000000000E+00  0.00000000000E+00  0.22274064193E+04  0.22274064193E+04  0.00000000000E+00 0.  1.
       21   -1    0    0  501  503  0.00000000000E+00  0.00000000000E+00 -0.12301608904E+03  0.12301608904E+03  0.00000000000E+00 0.  1.
  1000006    1    1    2  501    0 -0.18372088725E+02 -0.22611059302E+03  0.50752459454E+03  0.65692065578E+03  0.35000000000E+03 0.  0.
 -1000006    1    1    2    0  502  0.79148451420E+02  0.25537145239E+03  0.99817980300E+03  0.10910279443E+04  0.35000000000E+03 0.  0.
       21    1    1    2  504  503 -0.60776362696E+02 -0.29260859371E+02  0.59868593275E+03  0.60247390833E+03  0.00000000000E+00 0.  1.
<scales pt_clust_1="13000.00000" pt_clust_2="13000.00000" pt_clust_3="67.45342"></scales>
<clustering>
<clus scale="   67.453">  1  5  2 -1</clus>
<clus scale="  424.360">  2  3  1 -1</clus>
<clus scale="  424.360">  1  3  2 -1</clus>
</clustering>
</event>
<event>
 6   2  0.3464723E-02  0.5528240E+03  0.7816531E-02  0.1000842E+00
       21   -1    0    0  504  503  0.00000000000E+00  0.00000000000E+00  0.82160864434E+03  0.82160864434E+03  0.00000000000E+00 0.  1.
        2   -1    0    0  503    0  0.00000000000E+00  0.00000000000E+00 -0.18239898107E+04  0.18239898107E+04  0.00000000000E+00 0. -1.
  1000006    1    1    2  501    0 -0.31728578999E+03 -0.34348922603E+03  0.26646624310E+03  0.64199640158E+03  0.35000000000E+03 0.  0.
 -1000006    1    1    2    0  502  0.16641544981E+03  0.34944945848E+03  0.64125413633E+02  0.52575763869E+03  0.35000000000E+03 0.  0.
       21    1    1    2  504  501 -0.69382525207E+02  0.28584695295E+02  0.41266270761E+02  0.85638336694E+02  0.00000000000E+00 0.  1.
        2    1    1    2  502    0  0.22025286539E+03 -0.34544927738E+02 -0.13742390938E+04  0.13922060780E+04  0.00000000000E+00 0. -1.
<scales pt_clust_1="13000.00000" pt_clust_2="13000.00000" pt_clust_3="75.04012" pt_clust_4="222.08088"></scales>
<clustering>
<clus scale="   75.040">  1  5  2 -1</clus>
<clus scale="  222.081">  2  6  1 -1</clus>
<clus scale="  552.824">  2  4  1 -1</clus>
<clus scale="  552.824">  1  3  2 -1</clus>
</clustering>
</event>
<event>
 6   2  0.3464723E-02  0.6851011E+03  0.7816531E-02  0.9743056E-01
       21   -1    0    0  504  503  0.00000000000E+00  0.00000000000E+00  0.10460622392E+04  0.10460622392E+04  0.00000000000E+00 0.  1.
        2   -1    0    0  501    0  0.00000000000E+00  0.00000000000E+00 -0.81125403945E+03  0.81125403945E+03  0.00000000000E+00 0. -1.
  1000006    1    1    2  501    0  0.44573853539E+03  0.21606604340E+03 -0.67383483935E+02  0.61025233383E+03  0.35000000000E+03 0.  0.
 -1000006    1    1    2    0  503 -0.63368739230E+03 -0.48856219761E+03  0.25826090268E+03  0.91074223902E+03  0.35000000000E+03 0.  0.
       21    1    1    2  504  502  0.93352734830E+02  0.15715570532E+03  0.84330962670E+01  0.18298569869E+03  0.00000000000E+00 0. -1.
        2    1    1    2  502    0  0.94596122079E+02  0.11534044890E+03  0.35497684786E+02  0.15333600715E+03  0.00000000000E+00 0. -1.
<scales pt_clust_1="13000.00000" pt_clust_2="13000.00000" pt_clust_3="36.17357" pt_clust_4="333.44021"></scales>
<clustering>
<clus scale="   36.174">  5  6 -1 -1</clus>
<clus scale="  333.440">  1  5  2 -1</clus>
<clus scale=" 1341.608">  3  4 -1 -1</clus>
<clus scale="  685.101">  1  3  2 -1</clus>
</clustering>
</event>
<event>
 4   0  0.3464723E-02  0.3605378E+03  0.7816531E-02  0.1058371E+00
       21   -1    0    0  503  502  0.00000000000E+00  0.00000000000E+00  0.10194475104E+04  0.10194475104E+04  0.00000000000E+00 0. -1.
       21   -1    0    0  501  503  0.00000000000E+00  0.00000000000E+00 -0.12773655095E+03  0.12773655095E+03  0.00000000000E+00 0. -1.
  1000006    1    1    2  501    0 -0.29578101071E+02  0.81317958615E+02  0.42158047212E+03  0.55472296593E+03  0.35000000000E+03 0.  0.
 -1000006    1    1    2    0  502  0.29578101071E+02 -0.81317958615E+02  0.47013048729E+03  0.59246109538E+03  0.35000000000E+03 0.  0.
<scales pt_clust_1="13000.00000" pt_clust_2="13000.00000"></scales>
<clustering>
<clus scale="  360.538">  2  3  1 -1</clus>
<clus scale="  360.538">  1  3  2 -1</clus>
</clustering>
</event>
<event>
 6   2  0.3464723E-02  0.3564970E+03  0.7816531E-02  0.1059980E+00
        2   -1    0    0  503    0  0.00000000000E+00  0.00000000000E+00  0.11603710160E+04  0.11603710160E+04  0.00000000000E+00 0. -1.
       21   -1    0    0  501  503  0.00000000000E+00  0.00000000000E+00 -0.17124085022E+04  0.17124085022E+04  0.00000000000E+00 0. -1.
  1000006    1    1    2  501    0 -0.16217382634E+03  0.56922068261E+02 -0.87360821155E+03  0.95667746869E+03  0.35000000000E+03 0.  0.
 -1000006    1    1    2    0  504 -0.89036075146E+02  0.15568360839E+02 -0.46171773251E+03  0.58638985415E+03  0.35000000000E+03 0.  0.
       21    1    1    2  504  502  0.15593844464E+03 -0.92395672595E+02 -0.24058544592E+03  0.30122270104E+03  0.00000000000E+00 0. -1.
        2    1    1    2  502    0  0.95271456843E+02  0.19905243495E+02  0.10238739037E+04  0.10284894943E+04  0.00000000000E+00 0. -1.
<scales pt_clust_1="13000.00000" pt_clust_2="13000.00000" pt_clust_3="198.03935" pt_clust_4="97.32867"></scales>
<clustering>
<clus scale="   97.329">  1  6  2 -1</clus>
<clus scale="  198.039">  1  5  2 -1</clus>
<clus scale="  356.497">  1  4  2 -1</clus>
<clus scale="  356.497">  2  3  1 -1</clus>
</clustering>
</event>
<event>
 6   2  0.3464723E-02  0.3500009E+03  0.7816531E-02  0.1062615E+00
       21   -1    0    0  501  502  0.00000000000E+00  0.00000000000E+00  0.13509511827E+03  0.13509511827E+03  0.00000000000E+00 0.  1.
       21   -1    0    0  505  503  0.00000000000E+00  0.00000000000E+00 -0.21919146354E+04  0.21919146354E+04  0.00000000000E+00 0.  1.
  1000006    1    1    2  501    0 -0.67652266608E+02  0.59850058198E+02 -0.63192565292E+03  0.72800335814E+03  0.35000000000E+03 0.  0.
 -1000006    1    1    2    0  503 -0.73392712988E+02  0.60534667763E+02 -0.73694944238E+03  0.82136801553E+03  0.35000000000E+03 0.  0.
       21    1    1    2  504  502  0.16433897702E+02 -0.58377306438E+02  0.13822540706E+02  0.62201652166E+02  0.00000000000E+00 0.  1.
       21    1    1    2  505  504  0.12461108189E+03 -0.62007419523E+02 -0.70176696255E+03  0.71543672784E+03  0.00000000000E+00 0.  1.
<scales pt_clust_1="13000.00000" pt_clust_2="13000.00000" pt_clust_3="60.64638" pt_clust_4="142.08838"></scales>
<clustering>
<clus scale="   60.646">  1  5  2 -1</clus>
<clus scale="  142.088">  2  6  1 -1</clus>
<clus scale="  350.001">  2  4  1 -1</clus>
<clus scale="  350.001">  1  3  2 -1</clus>
</clustering>
</event>
<event>
 6   2  0.3464723E-02  0.4876831E+03  0.7816531E-02  0.1017045E+00
        2   -1    0    0  504    0  0.00000000000E+00  0.00000000000E+00  0.29911822347E+04  0.29911822347E+04  0.00000000000E+00 0.  1.
       21   -1    0    0  502  503  0.00000000000E+00  0.00000000000E+00 -0.42989784689E+03  0.42989784689E+03  0.00000000000E+00 0. -1.
  1000006    1    1    2  501    0 -0.13331108860E+03 -0.41187745299E+03  0.67095023181E+03  0.87183088738E+03  0.35000000000E+03 0.  0.
 -1000006    1    1    2    0  503 -0.33930733722E+02  0.32310008543E+03 -0.14773010409E+03  0.49986912642E+03  0.35000000000E+03 0.  0.
       21    1    1    2  504  501  0.68114778857E+02  0.65227004276E+02  0.56681959913E+03  0.57461173251E+03  0.00000000000E+00 0.  1.
        2    1    1    2  502    0  0.99127043463E+02  0.23550363284E+02  0.14712446609E+04  0.14747683352E+04  0.00000000000E+00 0.  1.
<scales pt_clust_1="13000.00000" pt_clust_2="13000.00000" pt_clust_3="94.30899" pt_clust_4="154.15074"></scales>
<clustering>
<clus scale="   94.309">  1  5  2 -1</clus>
<clus scale="  154.151">  1  6  2 -1</clus>
<clus scale="  487.683">  1  3  2 -1</clus>
<clus scale="  487.683">  2  3  1 -1</clus>
</clustering>
</event>
<event>
 6   2  0.3464723E-02  0.3792751E+03  0.7816531E-02  0.1051202E+00
       21   -1    0    0  501  502  0.00000000000E+00  0.00000000000E+00  0.84583420179E+03  0.84583420179E+03  0.00000000000E+00 0. -1.
       21   -1    0    0  505  503  0.00000000000E+00  0.00000000000E+00 -0.37198108856E+03  0.37198108856E+03  0.00000000000E+00 0. -1.
  1000006    1    1    2  501    0  0.10842586763E+03  0.85133420839E+02  0.44295148771E+03  0.58112811718E+03  0.35000000000E+03 0.  0.
 -1000006    1    1    2    0  503 -0.68004922125E+02 -0.16031385100E+03  0.17782008643E+03  0.42947081786E+03  0.35000000000E+03 0.  0.
       21    1    1    2  504  502 -0.71463950303E+02  0.82480322389E+02 -0.13397803142E+03  0.17280107835E+03  0.00000000000E+00 0. -1.
       21    1    1    2  505  504  0.31043004793E+02 -0.72998922231E+01 -0.12940429484E+02  0.34415276960E+02  0.00000000000E+00 0.  1.
<scales pt_clust_1="13000.00000" pt_clust_2="13000.00000" pt_clust_3="98.09710" pt_clust_4="31.88976"></scales>
<clustering>
<clus scale="   31.890">  2  6  1 -1</clus>
<clus scale="   98.097">  2  5  1 -1</clus>
<clus scale="  379.275">  1  3  2 -1</clus>
<clus scale="  379.275">  1  3  2 -1</clus>
</clustering>
</event>
<event>
 5   1  0.3464723E-02  0.3810333E+03  0.7816531E-02  0.1050552E+00
        2   -1    0    0  501    0  0.00000000000E+00  0.00000000000E+00  0.36993239372E+04  0.36993239372E+04  0.00000000000E+00 0.  1.
       21   -1    0    0  502  503  0.00000000000E+00  0.00000000000E+00 -0.11742713596E+03  0.11742713596E+03  0.00000000000E+00 0.  1.
  1000006    1    1    2  501    0 -0.11266847408E+03 -0.47666492177E+02  0.58590927370E+03  0.69336567303E+03  0.35000000000E+03 0.  0.
 -1000006    1    1    2    0  503  0.15742131511E+03  0.82521660610E+02  0.54452427500E+03  0.67126595399E+03  0.35000000000E+03 0.  0.
        2    1    1    2  502    0 -0.44752841024E+02 -0.34855168433E+02  0.24514632526E+04  0.24521194462E+04  0.00000000000E+00 0.  1.
<scales pt_clust_1="13000.00000" pt_clust_2="13000.00000" pt_clust_3="56.72477"></scales>
<clustering>
<clus scale="   56.725">  1  5  2 -1</clus>
<clus scale="  381.033">  2  4  1 -1</clus>
<clus scale="  381.033">  2  3  1 -1</clus>
</clustering>
</event>
<event>
 5   1  0.3464723E-02  0.3543339E+03  0.7816531E-02  0.1060850E+00
       21   -1    0    0  504  502  0.00000000000E+00  0.00000000000E+00  0.18603164781E+04  0.18603164781E+04  0.00000000000E+00 0.  1.
       21   -1    0    0  501  503  0.00000000000E+00  0.00000000000E+00 -0.11697624047E+03  0.11697624047E+03  0.00000000000E+00 0.  1.
  1000006    1    1    2  501    0 -0.83464426933E+02 -0.35991188682E+01  0.27715586995E+03  0.45419669799E+03  0.35000000000E+03 0.  0.
 -1000006    1    1    2    0  502  0.43994849149E+02  0.22921567782E+02  0.13978177942E+04  0.14418236823E+04  0.35000000000E+03 0.  0.
       21    1    1    2  504  503  0.39469577784E+02 -0.19322448914E+02  0.68366573525E+02  0.81272338333E+02  0.00000000000E+00 0.  1.
<scales pt_clust_1="13000.00000" pt_clust_2="13000.00000" pt_clust_3="43.94547"></scales>
<clustering>
<clus scale="   43.945">  2  5  1 -1</clus>
<clus scale="  354.334">  2  3  1 -1</clus>
<clus scale="  354.334">  1  3  2 -1</clus>
</clustering>
</event>
<event>
 6   2  0.3464723E-02  0.3899988E+03  0.7816531E-02  0.1047299E+00
       21   -1    0    0  501  502  0.00000000000E+00  0.00000000000E+00  0.11336388404E+04  0.11336388404E+04  0.00000000000E+00 0.  1.
       21   -1    0    0  505  503  0.00000000000E+00  0.00000000000E+00 -0.44376148227E+03  0.44376148227E+03  0.00000000000E+00 0.  1.
  1000006    1    1    2  501    0  0.10019514352E+03  0.15811509459E+03  0.92670782306E+03  0.10081303682E+04  0.35000000000E+03 0.  0.
 -1000006    1    1    2    0  504 -0.47281421312E+02 -0.60286102049E+02 -0.13286804243E+03  0.38213068916E+03  0.35000000000E+03 0.  0.
       21    1    1    2  504  503 -0.81520593659E+02 -0.69659634027E+02 -0.46114747541E+02  0.11672464069E+03  0.00000000000E+00 0.  1.
       21    1    1    2  505  502  0.28606871452E+02 -0.28169358517E+02 -0.57847674999E+02  0.70414624591E+02  0.00000000000E+00 0.  1.
<scales pt_clust_1="13000.00000" pt_clust_2="13000.00000" pt_clust_3="106.83445" pt_clust_4="40.14805"></scales>
<clustering>
<clus scale="   40.148">  2  6  1 -1</clus>
<clus scale="  106.834">  2  5  1 -1</clus>
<clus scale="  389.999">  1  3  2 -1</clus>
<clus scale="  389.999">  1  3  2 -1</clus>
</clustering>
</event>
<event>
 5   1  0.3464723E-02  0.4316031E+03  0.7816531E-02  0.1033355E+00
        2   -1    0    0  503    0  0.00000000000E+00  0.00000000000E+00  0.17699537238E+04  0.17699537238E+04  0.00000000000E+00 0. -1.
       -2   -1    0    0    0  501  0.00000000000E+00  0.00000000000E+00 -0.20385417093E+03  0.20385417093E+03  0.00000000000E+00 0.  1.
  1000006    1    1    2  502    0 -0.75035130625E+02  0.24061402221E+03  0.11951077643E+03  0.44755804562E+03  0.35000000000E+03 0.  0.
 -1000006    1    1    2    0  501  0.41257216151E+02 -0.25345605561E+03  0.11817678981E+04  0.12589747793E+04  0.35000000000E+03 0.  0.
       21    1    1    2  503  502  0.33777914474E+02  0.12842033401E+02  0.26482087834E+03  0.26727506979E+03  0.00000000000E+00 0.  1.
<scales pt_clust_1="13000.00000" pt_clust_2="13000.00000" pt_clust_3="36.13676"></scales>
<clustering>
<clus scale="   36.137">  1  5  2 -1</clus>
<clus scale="  922.021">  3  4 -1 -1</clus>
<clus scale="  431.603">  1  3  2 -1</clus>
</clustering>
</event>
<event>
 5   1  0.3464723E-02  0.3537152E+03  0.7816531E-02  0.1061100E+00
       21   -1    0    0  501  502  0.00000000000E+00  0.00000000000E+00  0.62510112712E+03  0.62510112712E+03  0.00000000000E+00 0. -1.
       21   -1    0    0  504  503  0.00000000000E+00  0.00000000000E+00 -0.25178818861E+03  0.25178818861E+03  0.00000000000E+00 0. -1.
  1000006    1    1    2  501    0  0.26035811855E+02  0.42943046119E+02  0.33906765425E+03  0.48988656122E+03  0.35000000000E+03 0.  0.
 -1000006    1    1    2    0  503 -0.52016109220E+02 -0.27230945678E+02  0.27904184425E+02  0.35598573501E+03  0.35000000000E+03 0.  0.
       21    1    1    2  504  502  0.25980297365E+02 -0.15712100441E+02  0.63410998399E+01  0.31017019499E+02  0.00000000000E+00 0. -1.
<scales pt_clust_1="13000.00000" pt_clust_2="13000.00000" pt_clust_3="30.36192"></scales>
<clustering>
<clus scale="   30.362">  2  5  1 -1</clus>
<clus scale="  353.715">  1  3  2 -1</clus>
<clus scale="  353.715">  1  3  2 -1</clus>
</clustering>
</event>
<event>
 4   0  0.3464723E-02  0.3788492E+03  0.7816531E-02  0.1051360E+00
       21   -1    0    0  501  502  0.00000000000E+00  0.00000000000E+00  0.22878859446E+03  0.22878859446E+03  0.00000000000E+00 0.  1.
       21   -1    0    0  502  503  0.00000000000E+00  0.00000000000E+00 -0.71834614627E+03  0.71834614627E+03  0.00000000000E+00 0.  1.
  1000006    1    1    2  501    0  0.53096248073E+02 -0.13493505205E+03 -0.76214131837E+02  0.38643922384E+03  0.35000000000E+03 0.  0.
 -1000006    1    1    2    0  503 -0.53096248073E+02  0.13493505205E+03 -0.41334341997E+03  0.56069551689E+03  0.35000000000E+03 0.  0.
<scales pt_clust_1="13000.00000" pt_clust_2="13000.00000"></scales>
<clustering>
<clus scale="  378.849">  1  3  2 -1</clus>
<clus scale="  378.849">  1  3  2 -1</clus>
</clustering>
</event>
<event>
 4   0  0.3464723E-02  0.3682483E+03  0.7816531E-02  0.1055365E+00
       21   -1    0    0  503  502  0.00000000000E+00  0.00000000000E+00  0.22813262944E+03  0.22813262944E+03  0.00000000000E+00 0. -1.
       21   -1    0    0  501  503  0.00000000000E+00  0.00000000000E+00 -0.59442101876E+03  0.59442101876E+03  0.00000000000E+00 0. -1.
  1000006    1    1    2  501    0  0.11435525035E+03 -0.54503043785E+01 -0.18317784095E+03  0.41129180701E+03  0.35000000000E+03 0.  0.
 -1000006    1    1    2    0  502 -0.11435525035E+03  0.54503043785E+01 -0.18311054836E+03  0.41126184119E+03  0.35000000000E+03 0.  0.
<scales pt_clust_1="13000.00000" pt_clust_2="13000.00000"></scales>
<clustering>
<clus scale="  368.248">  2  3  1 -1</clus>
<clus scale="  368.248">  1  3  2 -1</clus>
</clustering>
</event>
<event>
 5   1  0.3464723E-02  0.4075177E+03  0.7816531E-02  0.1041207E+00
       21   -1    0    0  504  502  0.00000000000E+00  0.00000000000E+00  0.20902843942E+04  0.20902843942E+04  0.00000000000E+00 0.  1.
       21   -1    0    0  501  503  0.00000000000E+00  0.00000000000E+00 -0.11913376206E+03  0.11913376206E+03  0.00000000000E+00 0.  1.
  1000006    1    1    2  501    0 -0.21277559039E+02 -0.22838011463E+03  0.43364461755E+03  0.60262580895E+03  0.35000000000E+03 0.  0.
 -1000006    1    1    2    0  502  0.39807043317E+02  0.15753083908E+03  0.11677450609E+04  0.12298492157E+04  0.35000000000E+03 0.  0.
       21    1    1    2  504  503 -0.18529484277E+02  0.70849275551E+02  0.36976095367E+03  0.37694313164E+03  0.00000000000E+00 0.  1.
<scales pt_clust_1="13000.00000" pt_clust_2="13000.00000" pt_clust_3="73.23224"></scales>
<clustering>
<clus scale="   73.232">  1  5  2 -1</clus>
<clus scale="  407.518">  2  3  1 -1</clus>
<clus scale="  407.518">  1  3  2 -1</clus>
</clustering>
</event>
<event>
 5   1  0.3464723E-02  0.3674697E+03  0.7816531E-02  0.1055665E+00
       21   -1    0    0  504  502  0.00000000000E+00  0.00000000000E+00  0.59334706772E+03  0.59334706772E+03  0.00000000000E+00 0.  1.
       21   -1    0    0  501  503  0.00000000000E+00  0.00000000000E+00 -0.57456090295E+03  0.57456090295E+03  0.00000000000E+00 0.  1.
  1000006    1    1    2  501    0 -0.16709881113E+03  0.83790737780E+02 -0.26037702359E+03  0.47459361019E+03  0.35000000000E+03 0.  0.
 -1000006    1    1    2    0  502  0.75465706162E+02 -0.63011270667E+02  0.39981857272E+03  0.54038910438E+03  0.35000000000E+03 0.  0.
       21    1    1    2  504  503  0.91633104966E+02 -0.20779467113E+02 -0.12065538436E+03  0.15292525610E+03  0.00000000000E+00 0.  1.
<scales pt_clust_1="13000.00000" pt_clust_2="13000.00000" pt_clust_3="93.95963"></scales>
<clustering>
<clus scale="   93.960">  2  5  1 -1</clus>
<clus scale="  367.470">  2  3  1 -1</clus>
<clus scale="  367.470">  1  3  2 -1</clus>
</clustering>
</event>
<event>
 5   1  0.3464723E-02  0.3855421E+03  0.7816531E-02  0.1048904E+00
       21   -1    0    0  504  502  0.00000000000E+00  0.00000000000E+00  0.12787112965E+04  0.12787112965E+04  0.00000000000E+00 0.  1.
       21   -1    0    0  502  503  0.00000000000E+00  0.00000000000E+00 -0.23900175932E+03  0.23900175932E+03  0.00000000000E+00 0.  1.
  1000006    1    1    2  501    0 -0.13645629391E+03  0.77870690854E+02  0.44288620836E+03  0.58594569560E+03  0.35000000000E+03 0.  0.
 -1000006    1    1    2    0  503  0.79381656915E+02 -0.15247938631E+03  0.69426190061E+02  0.39606995161E+03  0.35000000000E+03 0.  0.
       21    1    1    2  504  501  0.57074636994E+02  0.74608695453E+02  0.52739713879E+03  0.53569740864E+03  0.00000000000E+00 0.  1.
<scales pt_clust_1="13000.00000" pt_clust_2="13000.00000" pt_clust_3="93.93600"></scales>
<clustering>
<clus scale="   93.936">  1  5  2 -1</clus>
<clus scale="  385.542">  1  3  2 -1</clus>
<clus scale="  385.542">  1  3  2 -1</clus>
</clustering>
</event>
<event>
 4   0  0.3464723E-02  0.3642771E+03  0.7816531E-02  0.1056903E+00
        2   -1    0    0  502    0  0.00000000000E+00  0.00000000000E+00  0.20117722490E+04  0.20117722490E+04  0.00000000000E+00 0. -1.
       -2   -1    0    0    0  501  0.00000000000E+00  0.00000000000E+00 -0.72022248765E+02  0.72022248765E+02  0.00000000000E+00 0.  1.
  1000006    1    1    2  502    0 -0.90203140768E+02 -0.45400142011E+02  0.66761157235E+03  0.76052810009E+03  0.35000000000E+03 0.  0.
 -1000006    1    1    2    0  501  0.90203140768E+02  0.45400142011E+02  0.12721384279E+04  0.13232663977E+04  0.35000000000E+03 0.  0.
<scales pt_clust_1="13000.00000" pt_clust_2="13000.00000"></scales>
<clustering>
<clus scale="  460.510">  3  4 -1 -1</clus>
<clus scale="  364.277">  1  3  2 -1</clus>
</clustering>
</event>
<event>
 5   1  0.3464723E-02  0.3557027E+03  0.7816531E-02  0.1060298E+00
       21   -1    0    0  501  502  0.00000000000E+00  0.00000000000E+00  0.55592131358E+03  0.55592131358E+03  0.00000000000E+00 0. -1.
       21   -1    0    0  502  503  0.00000000000E+00  0.00000000000E+00 -0.30396287509E+03  0.30396287509E+03  0.00000000000E+00 0. -1.
  1000006    1    1    2  501    0  0.28289314097E+02 -0.29589925705E+02  0.16129000225E+03  0.38754395083E+03  0.35000000000E+03 0.  0.
 -1000006    1    1    2    0  504 -0.35721696107E+02  0.81615679400E+02  0.15176351009E+03  0.39175160713E+03  0.35000000000E+03 0.  0.
       21    1    1    2  504  503  0.74323820098E+01 -0.52025753695E+02 -0.61095073861E+02  0.80588630711E+02  0.00000000000E+00 0. -1.
<scales pt_clust_1="13000.00000" pt_clust_2="13000.00000" pt_clust_3="52.55397"></scales>
<clustering>
<clus scale="   52.554">  2  5  1 -1</clus>
<clus scale="  355.703">  1  3  2 -1</clus>
<clus scale="  355.703">  1  3  2 -1</clus>
</clustering>
</event>
<event>
 4   0  0.3464723E-02  0.6392571E+03  0.7816531E-02  0.9827149E-01
        1   -1    0    0  502    0  0.00000000000E+00  0.00000000000E+00  0.34654375129E+03  0.34654375129E+03  0.00000000000E+00 0.  1.
       -1   -1    0    0    0  501  0.00000000000E+00  0.00000000000E+00 -0.12116717573E+04  0.12116717573E+04  0.00000000000E+00 0. -1.
  1000006    1    1    2  502    0  0.50289522317E+03  0.18233510879E+03 -0.56007731286E+03  0.84990369676E+03  0.35000000000E+03 0.  0.
 -1000006    1    1    2    0  501 -0.50289522317E+03 -0.18233510879E+03 -0.30505069315E+03  0.70831181183E+03  0.35000000000E+03 0.  0.
<scales pt_clust_1="13000.00000" pt_clust_2="13000.00000"></scales>
<clustering>
<clus scale=" 1145.465">  3  4 -1 -1</clus>
<clus scale="  639.257">  1  3  2 -1</clus>
</clustering>
</event>
<event>
 5   1  0.3464723E-02  0.4133880E+03  0.7816531E-02  0.1039240E+00
       21   -1    0    0  501  502  0.00000000000E+00  0.00000000000E+00  0.20546844588E+03  0.20546844588E+03  0.00000000000E+00 0.  1.
       21   -1    0    0  504  503  0.00000000000E+00  0.00000000000E+00 -0.13610057993E+04  0.13610057993E+04  0.00000000000E+00 0. -1.
  1000006    1    1    2  501    0 -0.64261170487E+01  0.21981929831E+03 -0.13153694726E+03  0.43377850037E+03  0.35000000000E+03 0.  0.
 -1000006    1    1    2    0  503  0.60502696318E+02 -0.21303669244E+03 -0.97532049685E+03  0.10596203472E+04  0.35000000000E+03 0.  0.
       21    1    1    2  504  502 -0.54076579269E+02 -0.67826058744E+01 -0.48679909304E+02  0.73075397623E+02  0.00000000000E+00 0. -1.
<scales pt_clust_1="13000.00000" pt_clust_2="13000.00000" pt_clust_3="54.50028"></scales>
<clustering>
<clus scale="   54.500">  1  5  2 -1</clus>
<clus scale="  413.388">  2  4  1 -1</clus>
<clus scale="  413.388">  1  3  2 -1</clus>
</clustering>
</event>
<event>
 5   1  0.3464723E-02  0.4937468E+03  0.7816531E-02  0.1015424E+00
       21   -1    0    0  503  502  0.00000000000E+00  0.00000000000E+00  0.10220360760E+04  0.10220360760E+04  0.00000000000E+00 0. -1.
       21   -1    0    0  504  503  0.00000000000E+00  0.00000000000E+00 -0.44963180917E+03  0.44963180917E+03  0.00000000000E+00 0.  1.
  1000006    1    1    2  501    0  0.11835060685E+03 -0.37123056568E+03  0.72734396349E+01  0.52380521376E+03  0.35000000000E+03 0.  0.
 -1000006    1    1    2    0  502  0.25236379644E+02  0.34053215234E+03  0.62131156806E+03  0.79064978735E+03  0.35000000000E+03 0.  0.
       21    1    1    2  504  501 -0.14358698650E+03  0.30698413340E+02 -0.56180740849E+02  0.15721288406E+03  0.00000000000E+00 0.  1.
<scales pt_clust_1="13000.00000" pt_clust_2="13000.00000" pt_clust_3="146.83193"></scales>
<clustering>
<clus scale="  146.832">  2  5  1 -1</clus>
<clus scale="  493.747">  2  3  1 -1</clus>
<clus scale="  493.747">  1  3  2 -1</clus>
</clustering>
</event>
<event>
 5   1  0.3464723E-02  0.3949098E+03  0.7816531E-02  0.1045557E+00
       21   -1    0    0  501  502  0.00000000000E+00  0.00000000000E+00  0.29282644552E+03  0.29282644552E+03  0.00000000000E+00 0. -1.
       21   -1    0    0  504  503  0.00000000000E+00  0.00000000000E+00 -0.82975574406E+03  0.82975574406E+03  0.00000000000E+00 0. -1.
  1000006    1    1    2  501    0  0.14250229944E+03 -0.14973473701E+03 -0.26290068931E+03  0.48409107537E+03  0.35000000000E+03 0.  0.
 -1000006    1    1    2    0  503 -0.17151743368E+03  0.43459433589E+02 -0.33214810396E+03  0.51393512760E+03  0.35000000000E+03 0.  0.
       21    1    1    2  504  502  0.29015134236E+02  0.10627530342E+03  0.58119494727E+02  0.12455598661E+03  0.00000000000E+00 0. -1.
<scales pt_clust_1="13000.00000" pt_clust_2="13000.00000" pt_clust_3="110.16496"></scales>
<clustering>
<clus scale="  110.165">  1  5  2 -1</clus>
<clus scale="  394.910">  1  3  2 -1</clus>
<clus scale="  394.910">  1  3  2 -1</clus>
</clustering>
</event>
<event>
 6   2  0.3464723E-02  0.3513120E+03  0.7816531E-02  0.1062078E+00
       21   -1    0    0  502  503  0.00000000000E+00  0.00000000000E+00  0.92067296933E+03  0.92067296933E+03  0.00000000000E+00 0. -1.
       21   -1    0    0  501  504  0.00000000000E+00  0.00000000000E+00 -0.21167524971E+03  0.21167524971E+03  0.00000000000E+00 0. -1.
  1000006    1    1    2  501    0  0.73350270247E+01  0.30694439645E+02  0.55839074365E+03  0.65976978852E+03  0.35000000000E+03 0.  0.
 -1000006    1    1    2    0  503  0.47943809486E+02  0.76442756020E+01  0.11494410845E+03  0.37157662990E+03  0.35000000000E+03 0.  0.
        3    1    1    2  502    0 -0.32197882170E+02  0.33726007769E+01  0.41872006446E+02  0.52927714631E+02  0.00000000000E+00 0.  1.
       -3    1    1    2    0  504 -0.23080954340E+02 -0.41711316023E+02 -0.62091389299E+01  0.48074085992E+02  0.00000000000E+00 0. -1.
<scales pt_clust_1="13000.00000" pt_clust_2="13000.00000" pt_clust_3="32.37403" pt_clust_4="47.97968"></scales>
<clustering>
<clus scale="   32.374">  1  5  2 -1</clus>
<clus scale="   47.980">  2  6  1 -1</clus>
<clus scale="  488.129">  3  4 -1 -1</clus>
<clus scale="  351.312">  1  3  2 -1</clus>
</clustering>
</event>
<event>
 5   1  0.3464723E-02  0.3983505E+03  0.7816531E-02  0.1044352E+00
       -1   -1    0    0    0  501  0.00000000000E+00  0.00000000000E+00  0.76524729210E+03  0.76524729210E+03  0.00000000000E+00 0. -1.
       21   -1    0    0  501  503  0.00000000000E+00  0.00000000000E+00 -0.30358803800E+03  0.30358803800E+03  0.00000000000E+00 0. -1.
  1000006    1    1    2  502    0  0.13820204315E+03 -0.12816754451E+03  0.16262741172E+03  0.42950483029E+03  0.35000000000E+03 0.  0.
 -1000006    1    1    2    0  503 -0.10098283467E+03  0.16675022657E+03  0.73247798261E+02  0.40726945737E+03  0.35000000000E+03 0.  0.
       -1    1    1    2    0  502 -0.37219208482E+02 -0.38582682060E+02  0.22578404412E+03  0.23206104243E+03  0.00000000000E+00 0. -1.
<scales pt_clust_1="13000.00000" pt_clust_2="13000.00000" pt_clust_3="53.60870"></scales>
<clustering>
<clus scale="   53.609">  1  5  2 -1</clus>
<clus scale="  398.350">  1  3  2 -1</clus>
<clus scale="  398.350">  2  3  1 -1</clus>
</clustering>
</event>
<event>
 4   0  0.3464723E-02  0.3611258E+03  0.7816531E-02  0.1058139E+00
       21   -1    0    0  501  502  0.00000000000E+00  0.00000000000E+00  0.11238882766E+04  0.11238882766E+04  0.00000000000E+00 0.  1.
       21   -1    0    0  502  503  0.00000000000E+00  0.00000000000E+00 -0.25231731847E+03  0.25231731847E+03  0.00000000000E+00 0.  1.
  1000006    1    1    2  501    0  0.86490296259E+02  0.20766382799E+02  0.94149078629E+03  0.10083733012E+04  0.35000000000E+03 0.  0.
 -1000006    1    1    2    0  503 -0.86490296259E+02 -0.20766382799E+02 -0.69919828166E+02  0.36783229381E+03  0.35000000000E+03 0.  0.
<scales pt_clust_1="13000.00000" pt_clust_2="13000.00000"></scales>
<clustering>
<clus scale="  361.126">  1  3  2 -1</clus>
<clus scale="  361.126">  1  3  2 -1</clus>
</clustering>
</event>
<event>
 5   1  0.3464723E-02  0.4081182E+03  0.7816531E-02  0.1042043E+00
       21   -1    0    0  501  502  0.00000000000E+00  0.00000000000E+00  0.54815018264E+03  0.54815018264E+03  0.00000000000E+00 0.  1.
       21   -1    0    0  504  503  0.00000000000E+00  0.00000000000E+00 -0.95162795126E+03  0.95162795126E+03  0.00000000000E+00 0. -1.
  1000006    1    1    2  501    0 -0.54431866880E+02  0.27763243999E+03  0.15382152345E+03  0.47560872673E+03  0.35000000000E+03 0.  0.
 -1000006    1    1    2    0  503  0.24407328755E+03  0.90730925005E+02 -0.21295940189E+03  0.48544369117E+03  0.35000000000E+03 0.  0.
       21    1    1    2  504  502 -0.18964142067E+03 -0.36836336499E+03 -0.34433989018E+03  0.53872571599E+03  0.00000000000E+00 0. -1.
<scales pt_clust_1="13000.00000" pt_clust_2="13000.00000" pt_clust_3="414.31321"></scales>
<clustering>
<clus scale="  414.313">  2  5  1 -1</clus>
<clus scale="  414.313">  2  4  1 -1</clus>
<clus scale="  402.016">  1  3  2 -1</clus>
</clustering>
</event>
<event>
 5   1  0.3464723E-02  0.3551428E+03  0.7816531E-02  0.1060524E+00
       21   -1    0    0  504  502  0.00000000000E+00  0.00000000000E+00  0.93454498218E+03  0.93454498218E+03  0.00000000000E+00 0.  1.
       21   -1    0    0  501  503  0.00000000000E+00  0.00000000000E+00 -0.30611290108E+03  0.30611290108E+03  0.00000000000E+00 0.  1.
  1000006    1    1    2  501    0 -0.35921562855E+02 -0.10525467956E+03 -0.10595475190E+03  0.38222416943E+03  0.35000000000E+03 0.  0.
 -1000006    1    1    2    0  502 -0.57804599767E+01  0.52394876532E+02  0.69625400892E+03  0.78105587620E+03  0.35000000000E+03 0.  0.
       21    1    1    2  504  503  0.41702022832E+02  0.52859803023E+02  0.38132824084E+02  0.77377837631E+02  0.00000000000E+00 0.  1.
<scales pt_clust_1="13000.00000" pt_clust_2="13000.00000" pt_clust_3="67.32917"></scales>
<clustering>
<clus scale="   67.329">  2  5  1 -1</clus>
<clus scale="  355.143">  2  3  1 -1</clus>
<clus scale="  355.143">  1  3  2 -1</clus>
</clustering>
</event>
<event>
 6   2  0.3464723E-02  0.6447601E+03  0.7816531E-02  0.9993349E-01
        2   -1    0    0  504    0  0.00000000000E+00  0.00000000000E+00  0.19350989441E+04  0.19350989441E+04  0.00000000000E+00 0. -1.
       21   -1    0    0  501  503  0.00000000000E+00  0.00000000000E+00 -0.54534182348E+03  0.54534182348E+03  0.00000000000E+00 0. -1.
  1000006    1    1    2  501    0  0.90844298794E+02  0.10568805089E+03  0.61837162194E+02  0.38176758028E+03  0.35000000000E+03 0.  0.
 -1000006    1    1    2    0  502  0.52104595214E+03 -0.96499211457E+02  0.31201642547E+03  0.70756994836E+03  0.35000000000E+03 0.  0.
       21    1    1    2  504  503 -0.68629299727E+02 -0.60485628821E+02 -0.10811908854E+03  0.14162707856E+03  0.00000000000E+00 0. -1.
        2    1    1    2  502    0 -0.54326095121E+03  0.51296789392E+02  0.11240226215E+04  0.12494761604E+04  0.00000000000E+00 0. -1.
<scales pt_clust_1="13000.00000" pt_clust_2="13000.00000" pt_clust_3="91.47946" pt_clust_4="541.49385"></scales>
<clustering>
<clus scale="   91.479">  2  5  1 -1</clus>
<clus scale="  365.412">  2  3  1 -1</clus>
<clus scale="  541.494">  1  6  2 -1</clus>
<clus scale="  644.760">  2  3  1 -1</clus>
</clustering>
</event>
<event>
 6   2  0.3464723E-02  0.4021838E+03  0.7816531E-02  0.1043026E+00
       21   -1    0    0  501  502  0.00000000000E+00  0.00000000000E+00  0.63099846081E+03  0.63099846081E+03  0.00000000000E+00 0. -1.
       21   -1    0    0  505  503  0.00000000000E+00  0.00000000000E+00 -0.16202538472E+04  0.16202538472E+04  0.00000000000E+00 0. -1.
  1000006    1    1    2  501    0  0.15055471415E+03 -0.18746671400E+03 -0.40360974021E+03  0.58584239621E+03  0.35000000000E+03 0.  0.
 -1000006    1    1    2    0  503 -0.18180831369E+03  0.60834544521E+02 -0.10751986878E+04  0.11468684855E+04  0.35000000000E+03 0.  0.
       21    1    1    2  504  502 -0.15299408675E+02  0.57420089393E+02  0.35711483020E+03  0.36202505510E+03  0.00000000000E+00 0. -1.
       21    1    1    2  505  504  0.46553008214E+02  0.69212080081E+02  0.13243821144E+03  0.15651637120E+03  0.00000000000E+00 0. -1.
<scales pt_clust_1="13000.00000" pt_clust_2="13000.00000" pt_clust_3="59.42338" pt_clust_4="106.91358"></scales>
<clustering>
<clus scale="   59.423">  1  5  2 -1</clus>
<clus scale="  106.914">  1  6  2 -1</clus>
<clus scale="  402.184">  1  3  2 -1</clus>
<clus scale="  402.184">  1  3  2 -1</clus>
</clustering>
</event>
<event>
 6   2  0.3464723E-02  0.4360019E+03  0.7816531E-02  0.1031981E+00
       21   -1    0    0  501  503  0.00000000000E+00  0.00000000000E+00  0.85599104469E+03  0.85599104469E+03  0.00000000000E+00 0. -1.
        1   -1    0    0  504    0  0.00000000000E+00  0.00000000000E+00 -0.12586033608E+04  0.12586033608E+04  0.00000000000E+00 0. -1.
  1000006    1    1    2  501    0 -0.39845388050E+02 -0.27776510750E+03  0.49998543399E+03  0.67173398313E+03  0.35000000000E+03 0.  0.
 -1000006    1    1    2    0  502  0.73589816394E+02  0.26514434963E+03 -0.18440093653E+03  0.48189282274E+03  0.35000000000E+03 0.  0.
       21    1    1    2  504  503  0.25563248694E+01  0.31892293545E+02  0.11876408678E+03  0.12299821744E+03  0.00000000000E+00 0. -1.
        1    1    1    2  502    0 -0.36300753214E+02 -0.19271535670E+02 -0.83696090030E+03  0.83796938214E+03  0.00000000000E+00 0. -1.
<scales pt_clust_1="13000.00000" pt_clust_2="13000.00000" pt_clust_3="31.99458" pt_clust_4="41.08731"></scales>
<clustering>
<clus scale="   31.995">  1  5  2 -1</clus>
<clus scale="   41.087">  2  6  1 -1</clus>
<clus scale="  436.002">  1  3  2 -1</clus>
<clus scale="  436.002">  1  3  2 -1</clus>
</clustering>
</event>
<event>
 4   0  0.3464723E-02  0.5158751E+03  0.7816531E-02  0.1009716E+00
       21   -1    0    0  503  502  0.00000000000E+00  0.00000000000E+00  0.23870205597E+03  0.23870205597E+03  0.00000000000E+00 0.  1.
       21   -1    0    0  501  503  0.00000000000E+00  0.00000000000E+00 -0.11584377328E+04  0.11584377328E+04  0.00000000000E+00 0. -1.
  1000006    1    1    2  501    0 -0.33248116133E+03  0.18188837153E+03 -0.59530705857E+03  0.78772939282E+03  0.35000000000E+03 0.  0.
 -1000006    1    1    2    0  502  0.33248116133E+03 -0.18188837153E+03 -0.32442861827E+03  0.60941039595E+03  0.35000000000E+03 0.  0.
<scales pt_clust_1="13000.00000" pt_clust_2="13000.00000"></scales>
<clustering>
<clus scale="  515.875">  2  3  1 -1</clus>
<clus scale="  515.875">  1  3  2 -1</clus>
</clustering>
</event>
<event>
 6   2  0.3464723E-02  0.6626610E+03  0.7816531E-02  0.9783307E-01
       21   -1    0    0  504  503  0.00000000000E+00  0.00000000000E+00  0.44602873621E+03  0.44602873621E+03  0.00000000000E+00 0.  1.
        2   -1    0    0  501    0  0.00000000000E+00  0.00000000000E+00 -0.19566426464E+04  0.19566426464E+04  0.00000000000E+00 0. -1.
  1000006    1    1    2  501    0 -0.53365805188E+03 -0.25734654603E+03 -0.58882813512E+03  0.90566921876E+03  0.35000000000E+03 0.  0.
 -1000006    1    1    2    0  503  0.51790474736E+03  0.17889657777E+03 -0.14394544627E+03  0.66592011861E+03  0.35000000000E+03 0.  0.
       21    1    1    2  504  502  0.49436006991E+02  0.86202135928E+02 -0.68022848463E+02  0.12042356472E+03  0.00000000000E+00 0.  1.
        2    1    1    2  502    0 -0.33682702466E+02 -0.77521676648E+01 -0.70981748031E+03  0.71065848049E+03  0.00000000000E+00 0. -1.
<scales pt_clust_1="13000.00000" pt_clust_2="13000.00000" pt_clust_3="97.61539" pt_clust_4="34.56328"></scales>
<clustering>
<clus scale="   34.563">  2  6  1 -1</clus>
<clus scale="   97.615">  2  5  1 -1</clus>
<clus scale="  662.661">  2  3  1 -1</clus>
<clus scale="  662.661">  1  3  2 -1</clus>
</clustering>
</event>
<event>
 6   2  0.3464723E-02  0.4735944E+03  0.7816531E-02  0.1020911E+00
       21   -1    0    0  501  502  0.00000000000E+00  0.00000000000E+00  0.97534228076E+03  0.97534228076E+03  0.00000000000E+00 0. -1.
       21   -1    0    0  505  503  0.00000000000E+00  0.00000000000E+00 -0.65836000827E+03  0.65836000827E+03  0.00000000000E+00 0.  1.
  1000006    1    1    2  501    0 -0.41995556304E+03 -0.13216202665E+03  0.21975118807E+03  0.60383777695E+03  0.35000000000E+03 0.  0.
 -1000006    1    1    2    0  503  0.24677155446E+03  0.60761642979E+02 -0.29664366533E+03  0.52448607373E+03  0.35000000000E+03 0.  0.
       21    1    1    2  504  502  0.12275358362E+03  0.12993759295E+03  0.38882938379E+03  0.42794919097E+03  0.00000000000E+00 0. -1.
       21    1    1    2  505  504  0.50430424963E+02 -0.58537209282E+02  0.50453659579E+01  0.77429247382E+02  0.00000000000E+00 0. -1.
<scales pt_clust_1="13000.00000" pt_clust_2="13000.00000" pt_clust_3="178.51921" pt_clust_4="77.26469"></scales>
<clustering>
<clus scale="   77.265">  2  6  1 -1</clus>
<clus scale="  178.519">  1  5  2 -1</clus>
<clus scale="  473.594">  1  3  2 -1</clus>
<clus scale="  473.594">  1  3  2 -1</clus>
</clustering>
</event>
<event>
 6   2  0.3464723E-02  0.8295319E+03  0.7816531E-02  0.9518228E-01
       21   -1    0    0  504  502  0.00000000000E+00  0.00000000000E+00  0.18893164656E+04  0.18893164656E+04  0.00000000000E+00 0.  1.
       21   -1    0    0  501  503  0.00000000000E+00  0.00000000000E+00 -0.57043593229E+03  0.57043593229E+03  0.00000000000E+00 0. -1.
  1000006    1    1    2  501    0  0.85779583523E+03 -0.41503473169E+02  0.21212028985E+03  0.95133130433E+03  0.35000000000E+03 0.  0.
 -1000006    1    1    2    0  502 -0.71112633588E+03 -0.72196055990E+02  0.10120504640E+04  0.12875010981E+04  0.35000000000E+03 0.  0.
       21    1    1    2  504  505 -0.11711737907E+03  0.48151685450E+02  0.49350247634E+02  0.13590626267E+03  0.00000000000E+00 0. -1.
       21    1    1    2  505  503 -0.29552120278E+02  0.65547843709E+02  0.45359531895E+02  0.85013732782E+02  0.00000000000E+00 0.  1.
<scales pt_clust_1="13000.00000" pt_clust_2="13000.00000" pt_clust_3="199.58883" pt_clust_4="55.35347"></scales>
<clustering>
<clus scale="   55.353">  5  6 -1 -1</clus>
<clus scale="  199.589">  2  5  1 -1</clus>
<clus scale="  829.532">  2  3  1 -1</clus>
<clus scale="  829.532">  1  3  2 -1</clus>
</clustering>
</event>
<event>
 5   1  0.3464723E-02  0.4063914E+03  0.7816531E-02  0.1041589E+00
       21   -1    0    0  501  502  0.00000000000E+00  0.00000000000E+00  0.37860043310E+03  0.37860043310E+03  0.00000000000E+00 0.  1.
       21   -1    0    0  504  503  0.00000000000E+00  0.00000000000E+00 -0.54051045728E+03  0.54051045728E+03  0.00000000000E+00 0. -1.
  1000006    1    1    2  501    0  0.78939390405E+02 -0.16998724723E+03 -0.27801752434E+02  0.39799501130E+03  0.35000000000E+03 0.  0.
 -1000006    1    1    2    0  503 -0.92421511242E+02  0.19984243308E+03 -0.19099189180E+03  0.45547407888E+03  0.35000000000E+03 0.  0.
       21    1    1    2  504  502  0.13482120836E+02 -0.29855185848E+02  0.56883620056E+02  0.65641800211E+02  0.00000000000E+00 0. -1.
<scales pt_clust_1="13000.00000" pt_clust_2="13000.00000" pt_clust_3="32.75820"></scales>
<clustering>
<clus scale="   32.758">  1  5  2 -1</clus>
<clus scale="  406.391">  1  3  2 -1</clus>
<clus scale="  406.391">  1  3  2 -1</clus>
</clustering>
</event>
<event>
 6   2  0.3464723E-02  0.3550942E+03  0.7816531E-02  0.1060543E+00
        2   -1    0    0  502    0  0.00000000000E+00  0.00000000000E+00  0.60398824186E+03  0.60398824186E+03  0.00000000000E+00 0.  1.
        2   -1    0    0  501    0  0.00000000000E+00  0.00000000000E+00 -0.76283102123E+03  0.76283102123E+03  0.00000000000E+00 0.  1.
  1000006    1    1    2  501    0 -0.92420860991E+02  0.10485383144E+02 -0.10170157670E+03  0.37615790502E+03  0.35000000000E+03 0.  0.
 -1000006    1    1    2    0  503 -0.12549452758E+01  0.68902465259E+02  0.16785441579E+03  0.39423879757E+03  0.35000000000E+03 0.  0.
        2    1    1    2  502    0  0.30998322089E+02 -0.46381471214E+02 -0.40195702553E+03  0.40580979191E+03  0.00000000000E+00 0.  1.
        2    1    1    2  503    0  0.62677484178E+02 -0.33006377189E+02  0.17696140706E+03  0.19061276859E+03  0.00000000000E+00 0.  1.
<scales pt_clust_1="13000.00000" pt_clust_2="13000.00000" pt_clust_3="55.78653" pt_clust_4="71.77135"></scales>
<clustering>
<clus scale="   55.787">  2  5  1 -1</clus>
<clus scale="   71.771">  1  6  2 -1</clus>
<clus scale="  355.094">  2  3  1 -1</clus>
<clus scale="  355.094">  1  3  2 -1</clus>
</clustering>
</event>
<event>
 4   0  0.3464723E-02  0.3553333E+03  0.7816531E-02  0.1060447E+00
       21   -1    0    0  503  502  0.00000000000E+00  0.00000000000E+00  0.30158287987E+03  0.30158287987E+03  0.00000000000E+00 0. -1.
       21   -1    0    0  501  503  0.00000000000E+00  0.00000000000E+00 -0.47503798333E+03  0.47503798333E+03  0.00000000000E+00 0. -1.
  1000006    1    1    2  501    0 -0.18942990799E+02  0.58334549530E+02 -0.22049671681E+03  0.41818722923E+03  0.35000000000E+03 0.  0.
 -1000006    1    1    2    0  502  0.18942990799E+02 -0.58334549530E+02  0.47041613352E+02  0.35843363396E+03  0.35000000000E+03 0.  0.
<scales pt_clust_1="13000.00000" pt_clust_2="13000.00000"></scales>
<clustering>
<clus scale="  355.333">  2  3  1 -1</clus>
<clus scale="  355.333">  1  3  2 -1</clus>
</clustering>
</event>
<event>
 4   0  0.3464723E-02  0.1012256E+04  0.7816531E-02  0.9295204E-01
        1   -1    0    0  502    0  0.00000000000E+00  0.00000000000E+00  0.18908474115E+04  0.18908474115E+04  0.00000000000E+00 0. -1.
       -1   -1    0    0    0  501  0.00000000000E+00  0.00000000000E+00 -0.54191965320E+03  0.54191965320E+03  0.00000000000E+00 0.  1.
  1000006    1    1    2  502    0 -0.89936422153E+03 -0.30546107349E+03  0.68046042871E+03  0.12197085166E+04  0.35000000000E+03 0.  0.
 -1000006    1    1    2    0  501  0.89936422153E+03  0.30546107349E+03  0.66846732953E+03  0.12130585481E+04  0.35000000000E+03 0.  0.
<scales pt_clust_1="13000.00000" pt_clust_2="13000.00000"></scales>
<clustering>
<clus scale=" 1931.644">  3  4 -1 -1</clus>
<clus scale=" 1012.256">  1  3  2 -1</clus>
</clustering>
</event>
<event>
 4   0  0.3464723E-02  0.3814563E+03  0.7816531E-02  0.1050397E+00
       21   -1    0    0  501  502  0.00000000000E+00  0.00000000000E+00  0.92291032911E+02  0.92291032911E+02  0.00000000000E+00 0. -1.
       21   -1    0    0  502  503  0.00000000000E+00  0.00000000000E+00 -0.16664035406E+04  0.16664035406E+04  0.00000000000E+00 0. -1.
  1000006    1    1    2  501    0  0.64030119664E+02 -0.13751010023E+03 -0.58295643920E+03  0.69666856818E+03  0.35000000000E+03 0.  0.
 -1000006    1    1    2    0  503 -0.64030119664E+02  0.13751010023E+03 -0.99115606850E+03  0.10620260053E+04  0.35000000000E+03 0.  0.
<scales pt_clust_1="13000.00000" pt_clust_2="13000.00000"></scales>
<clustering>
<clus scale="  381.456">  1  3  2 -1</clus>
<clus scale="  381.456">  1  3  2 -1</clus>
</clustering>
</event>
<event>
 4   0  0.3464723E-02  0.4297341E+03  0.7816531E-02  0.1033944E+00
       21   -1    0    0  501  502  0.00000000000E+00  0.00000000000E+00  0.30349701843E+03  0.30349701843E+03  0.00000000000E+00 0.  1.
       21   -1    0    0  502  503  0.00000000000E+00  0.00000000000E+00 -0.61918003448E+03  0.61918003448E+03  0.00000000000E+00 0. -1.
  1000006    1    1    2  501    0  0.13601597467E+03  0.20897610046E+03 -0.97190513041E+02  0.44058750749E+03  0.35000000000E+03 0.  0.
 -1000006    1    1    2    0  503 -0.13601597467E+03 -0.20897610046E+03 -0.21849250301E+03  0.48208954542E+03  0.35000000000E+03 0.  0.
<scales pt_clust_1="13000.00000" pt_clust_2="13000.00000"></scales>
<clustering>
<clus scale="  429.734">  1  3  2 -1</clus>
<clus scale="  429.734">  1  3  2 -1</clus>
</clustering>
</event>
<event>
 5   1  0.3464723E-02  0.5251830E+03  0.7816531E-02  0.1007407E+00
       21   -1    0    0  501  503  0.00000000000E+00  0.00000000000E+00  0.36165350889E+03  0.36165350889E+03  0.00000000000E+00 0.  1.
        2   -1    0    0  503    0  0.00000000000E+00  0.00000000000E+00 -0.10723548230E+04  0.10723548230E+04  0.00000000000E+00 0. -1.
  1000006    1    1    2  501    0  0.19397340564E+03 -0.32193686425E+03 -0.18485989696E+03  0.54584082677E+03  0.35000000000E+03 0.  0.
 -1000006    1    1    2    0  502 -0.22402622339E+03  0.34217382886E+03 -0.22218066436E+03  0.58235292181E+03  0.35000000000E+03 0.  0.
        2    1    1    2  502    0  0.30052817742E+02 -0.20236964613E+02 -0.30366075278E+03  0.30581458332E+03  0.00000000000E+00 0. -1.
<scales pt_clust_1="13000.00000" pt_clust_2="13000.00000" pt_clust_3="36.23129"></scales>
<clustering>
<clus scale="   36.231">  2  5  1 -1</clus>
<clus scale="  525.183">  1  3  2 -1</clus>
<clus scale="  525.183">  1  3  2 -1</clus>
</clustering>
</event>
<event>
 6   2  0.3464723E-02  0.6633849E+03  0.7816531E-02  0.9781983E-01
       21   -1    0    0  501  502  0.00000000000E+00  0.00000000000E+00  0.10491370757E+04  0.10491370757E+04  0.00000000000E+00 0.  1.
       21   -1    0    0  504  503  0.00000000000E+00  0.00000000000E+00 -0.11496981212E+04  0.11496981212E+04  0.00000000000E+00 0. -1.
  1000006    1    1    2  501    0 -0.26159408497E+03 -0.50027071364E+03  0.78198697604E+03  0.10260145627E+04  0.35000000000E+03 0.  0.
 -1000006    1    1    2    0  505  0.24765619343E+03  0.48793430639E+03 -0.85795937941E+03  0.10761076964E+04  0.35000000000E+03 0.  0.
       21    1    1    2  504  502  0.35883818270E+02 -0.19121735221E+02  0.13317468716E+02  0.42786027445E+02  0.00000000000E+00 0. -1.
       21    1    1    2  505  503 -0.21945926730E+02  0.31458142475E+02 -0.37906110852E+02  0.53926910424E+02  0.00000000000E+00 0. -1.
<scales pt_clust_1="13000.00000" pt_clust_2="13000.00000" pt_clust_3="40.20531" pt_clust_4="38.35673"></scales>
<clustering>
<clus scale="   38.357">  2  6  1 -1</clus>
<clus scale="   40.205">  1  5  2 -1</clus>
<clus scale="  663.385">  2  4  1 -1</clus>
<clus scale="  663.385">  1  3  2 -1</clus>
</clustering>
</event>
<event>
 6   2  0.3464723E-02  0.3501361E+03  0.7816531E-02  0.1062559E+00
       21   -1    0    0  505  502  0.00000000000E+00  0.00000000000E+00  0.47592617269E+03  0.47592617269E+03  0.00000000000E+00 0.  1.
       21   -1    0    0  504  503  0.00000000000E+00  0.00000000000E+00 -0.11842812706E+04  0.11842812706E+04  0.00000000000E+00 0.  1.
  1000006    1    1    2  501    0  0.10778579015E+02 -0.54421419003E+02 -0.14727965885E+03  0.38375665013E+03  0.35000000000E+03 0.  0.
 -1000006    1    1    2    0  503  0.14529839603E+02 -0.20694497702E+02 -0.87718612740E+03  0.94477239618E+03  0.35000000000E+03 0.  0.
       21    1    1    2  504  502 -0.40122851219E+02  0.46850780971E+02  0.25912609946E+03  0.26636661632E+03  0.00000000000E+00 0.  1.
       21    1    1    2  505  501  0.14814432602E+02  0.28265135734E+02  0.56984588931E+02  0.65311780614E+02  0.00000000000E+00 0.  1.
<scales pt_clust_1="13000.00000" pt_clust_2="13000.00000" pt_clust_3="71.68091" pt_clust_4="31.91215"></scales>
<clustering>
<clus scale="   31.912">  1  6  2 -1</clus>
<clus scale="   71.681">  1  5  2 -1</clus>
<clus scale="  350.136">  1  3  2 -1</clus>
<clus scale="  350.136">  1  3  2 -1</clus>
</clustering>
</event>
<event>
 5   1  0.3464723E-02  0.3895704E+03  0.7816531E-02  0.1047452E+00
       21   -1    0    0  501  503  0.00000000000E+00  0.00000000000E+00  0.62435523200E+03  0.62435523200E+03  0.00000000000E+00 0.  1.
        2   -1    0    0  503    0  0.00000000000E+00  0.00000000000E+00 -0.37961087562E+04  0.37961087562E+04  0.00000000000E+00 0. -1.
  1000006    1    1    2  501    0 -0.19534589704E+03  0.85089015462E+02  0.38221996420E+03  0.56035012365E+03  0.35000000000E+03 0.  0.
 -1000006    1    1    2    0  502  0.91316338657E+02  0.17240112158E+03 -0.12475975573E+03  0.41967346482E+03  0.35000000000E+03 0.  0.
        2    1    1    2  502    0  0.10402955838E+03 -0.25749013704E+03 -0.34292137326E+04  0.34404403997E+04  0.00000000000E+00 0. -1.
<scales pt_clust_1="13000.00000" pt_clust_2="13000.00000" pt_clust_3="277.71086"></scales>
<clustering>
<clus scale="  277.711">  2  5  1 -1</clus>
<clus scale="  389.570">  1  3  2 -1</clus>
<clus scale="  389.570">  1  3  2 -1</clus>
</clustering>
</event>
<event>
 5   1  0.3464723E-02  0.3691797E+03  0.7816531E-02  0.1055007E+00
       21   -1    0    0  504  502  0.00000000000E+00  0.00000000000E+00  0.28663143350E+04  0.28663143350E+04  0.00000000000E+00 0.  1.
       21   -1    0    0  501  503  0.00000000000E+00  0.00000000000E+00 -0.63799756767E+02  0.63799756767E+02  0.00000000000E+00 0.  1.
  1000006    1    1    2  501    0 -0.11129047645E+03 -0.43888663511E+02  0.84471347366E+03  0.92214567044E+03  0.35000000000E+03 0.  0.
 -1000006    1    1    2    0  502  0.11749768579E+03  0.10559865687E+02  0.19272793295E+04  0.19623513525E+04  0.35000000000E+03 0.  0.
       21    1    1    2  504  503 -0.62072093403E+01  0.33328797824E+02  0.30521775144E+02  0.45617068847E+02  0.00000000000E+00 0.  1.
<scales pt_clust_1="13000.00000" pt_clust_2="13000.00000" pt_clust_3="33.90189"></scales>
<clustering>
<clus scale="   33.902">  2  5  1 -1</clus>
<clus scale="  369.180">  2  3  1 -1</clus>
<clus scale="  369.180">  1  3  2 -1</clus>
</clustering>
</event>
<event>
 4   0  0.3464723E-02  0.5785828E+03  0.7816531E-02  0.9950864E-01
       21   -1    0    0  501  502  0.00000000000E+00  0.00000000000E+00  0.77751845292E+03  0.77751845292E+03  0.00000000000E+00 0. -1.
       21   -1    0    0  502  503  0.00000000000E+00  0.00000000000E+00 -0.43585897240E+03  0.43585897240E+03  0.00000000000E+00 0. -1.
  1000006    1    1    2  501    0  0.29642627525E+03  0.35268892725E+03  0.23780778402E+03  0.62554820614E+03  0.35000000000E+03 0.  0.
 -1000006    1    1    2    0  503 -0.29642627525E+03 -0.35268892725E+03  0.10385169650E+03  0.58782921918E+03  0.35000000000E+03 0.  0.
<scales pt_clust_1="13000.00000" pt_clust_2="13000.00000"></scales>
<clustering>
<clus scale="  578.583">  1  3  2 -1</clus>
<clus scale="  578.583">  1  3  2 -1</clus>
</clustering>
</event>
<event>
 5   1  0.3464723E-02  0.3748813E+03  0.7816531E-02  0.1052842E+00
       21   -1    0    0  501  502  0.00000000000E+00  0.00000000000E+00  0.21188966630E+03  0.21188966630E+03  0.00000000000E+00 0. -1.
       21   -1    0    0  504  503  0.00000000000E+00  0.00000000000E+00 -0.97601746273E+03  0.97601746273E+03  0.00000000000E+00 0. -1.
  1000006    1    1    2  501    0  0.69917261021E+02 -0.10051751150E+03 -0.19668533946E+03  0.41973481660E+03  0.35000000000E+03 0.  0.
 -1000006    1    1    2    0  503 -0.10239840937E+03  0.96774023429E+02 -0.60832200991E+03  0.71582561675E+03  0.35000000000E+03 0.  0.
       21    1    1    2  504  502  0.32481148352E+02  0.37434880695E+01  0.40879552935E+02  0.52346695688E+02  0.00000000000E+00 0.  1.
<scales pt_clust_1="13000.00000" pt_clust_2="13000.00000" pt_clust_3="32.69616"></scales>
<clustering>
<clus scale="   32.696">  1  5  2 -1</clus>
<clus scale="  374.881">  1  3  2 -1</clus>
<clus scale="  374.881">  1  3  2 -1</clus>
</clustering>
</event>
<event>
 4   0  0.3464723E-02  0.3572146E+03  0.7816531E-02  0.1059692E+00
       21   -1    0    0  503  502  0.00000000000E+00  0.00000000000E+00  0.65845359449E+03  0.65845359449E+03  0.00000000000E+00 0.  1.
       21   -1    0    0  501  503  0.00000000000E+00  0.00000000000E+00 -0.19587069569E+03  0.19587069569E+03  0.00000000000E+00 0.  1.
  1000006    1    1    2  501    0  0.62931433566E+02  0.33791571157E+02  0.18727338911E+03  0.40332810202E+03  0.35000000000E+03 0.  0.
 -1000006    1    1    2    0  502 -0.62931433566E+02 -0.33791571157E+02  0.27530950969E+03  0.45099618816E+03  0.35000000000E+03 0.  0.
<scales pt_clust_1="13000.00000" pt_clust_2="13000.00000"></scales>
<clustering>
<clus scale="  357.215">  2  3  1 -1</clus>
<clus scale="  357.215">  1  3  2 -1</clus>
</clustering>
</event>
<event>
 6   2  0.3464723E-02  0.5640577E+03  0.7816531E-02  0.9982915E-01
       21   -1    0    0  504  502  0.00000000000E+00  0.00000000000E+00  0.76962341006E+03  0.76962341006E+03  0.00000000000E+00 0.  1.
       21   -1    0    0  501  503  0.00000000000E+00  0.00000000000E+00 -0.59090481579E+03  0.59090481579E+03  0.00000000000E+00 0. -1.
  1000006    1    1    2  501    0 -0.22968642492E+03 -0.38595074551E+03 -0.20832067037E+03  0.60630960198E+03  0.35000000000E+03 0.  0.
 -1000006    1    1    2    0  502  0.27704186219E+03  0.32989089484E+03  0.28513586072E+03  0.62400533249E+03  0.35000000000E+03 0.  0.
       21    1    1    2  504  505 -0.27303923095E+02  0.22667911444E+02  0.74710287599E+02  0.82710129360E+02  0.00000000000E+00 0.  1.
       21    1    1    2  505  503 -0.20051514176E+02  0.33391939230E+02  0.27193116328E+02  0.47503162020E+02  0.00000000000E+00 0.  1.
<scales pt_clust_1="13000.00000" pt_clust_2="13000.00000" pt_clust_3="32.87130" pt_clust_4="81.06292"></scales>
<clustering>
<clus scale="   32.871">  5  6 -1 -1</clus>
<clus scale="   81.063">  1  5  2 -1</clus>
<clus scale="  564.058">  2  3  1 -1</clus>
<clus scale="  564.058">  1  3  2 -1</clus>
</clustering>
</event>
<event>
 5   1  0.3464723E-02  0.3675355E+03  0.7816531E-02  0.1055639E+00
       21   -1    0    0  502  503  0.00000000000E+00  0.00000000000E+00  0.53701603653E+03  0.53701603653E+03  0.00000000000E+00 0.  1.
        1   -1    0    0  501    0  0.00000000000E+00  0.00000000000E+00 -0.15859449183E+04  0.15859449183E+04  0.00000000000E+00 0. -1.
  1000006    1    1    2  501    0 -0.11962125956E+03  0.10514395628E+03  0.39809630696E+02  0.38658673539E+03  0.35000000000E+03 0.  0.
 -1000006    1    1    2    0  503  0.94715452833E+02  0.14072516448E+03  0.19077874556E+03  0.43321024766E+03  0.35000000000E+03 0.  0.
        1    1    1    2  502    0  0.24905806731E+02 -0.24586912076E+03 -0.12795172580E+04  0.13031639717E+04  0.00000000000E+00 0. -1.
<scales pt_clust_1="13000.00000" pt_clust_2="13000.00000" pt_clust_3="247.12734"></scales>
<clustering>
<clus scale="  247.127">  2  5  1 -1</clus>
<clus scale="  367.536">  2  3  1 -1</clus>
<clus scale="  367.536">  1  3  2 -1</clus>
</clustering>
</event>
<event>
 4   0  0.3464723E-02  0.4583189E+03  0.7816531E-02  0.1025270E+00
       21   -1    0    0  501  502  0.00000000000E+00  0.00000000000E+00  0.29875364423E+03  0.29875364423E+03  0.00000000000E+00 0.  1.
       21   -1    0    0  502  503  0.00000000000E+00  0.00000000000E+00 -0.76232557631E+03  0.76232557631E+03  0.00000000000E+00 0.  1.
  1000006    1    1    2  501    0 -0.29070166993E+03  0.55215349159E+02 -0.83918908903E+02  0.46593838536E+03  0.35000000000E+03 0.  0.
 -1000006    1    1    2    0  503  0.29070166993E+03 -0.55215349159E+02 -0.37965302318E+03  0.59514083517E+03  0.35000000000E+03 0.  0.
<scales pt_clust_1="13000.00000" pt_clust_2="13000.00000"></scales>
<clustering>
<clus scale="  458.319">  1  3  2 -1</clus>
<clus scale="  458.319">  1  3  2 -1</clus>
</clustering>
</event>
<event>
 6   2  0.3464723E-02  0.3893217E+03  0.7816531E-02  0.1047541E+00
       21   -1    0    0  504  502  0.00000000000E+00  0.00000000000E+00  0.29273713647E+04  0.29273713647E+04  0.00000000000E+00 0. -1.
       21   -1    0    0  502  503  0.00000000000E+00  0.00000000000E+00 -0.65483342917E+03  0.65483342917E+03  0.00000000000E+00 0. -1.
  1000006    1    1    2  501    0  0.25393232817E+02 -0.24545190964E+02  0.11778105167E+03  0.37097123717E+03  0.35000000000E+03 0.  0.
 -1000006    1    1    2    0  503 -0.10093236395E+03 -0.21206312392E+03 -0.42392137717E+03  0.59780217852E+03  0.35000000000E+03 0.  0.
       21    1    1    2  504  505  0.17638560976E+03  0.15856782637E+02  0.12899125110E+04  0.13020129058E+04  0.00000000000E+00 0. -1.
       21    1    1    2  505  501 -0.10084647863E+03  0.22075153225E+03  0.12887657499E+04  0.13114184723E+04  0.00000000000E+00 0. -1.
<scales pt_clust_1="13000.00000" pt_clust_2="13000.00000" pt_clust_3="177.09693" pt_clust_4="236.74345"></scales>
<clustering>
<clus scale="  177.097">  1  5  2 -1</clus>
<clus scale="  236.743">  1  6  2 -1</clus>
<clus scale="  389.322">  2  4  1 -1</clus>
<clus scale="  389.322">  1  3  2 -1</clus>
</clustering>
</event>
<event>
 6   2  0.3464723E-02  0.3702175E+03  0.7816531E-02  0.1054610E+00
       21   -1    0    0  501  503  0.00000000000E+00  0.00000000000E+00  0.40694124354E+03  0.40694124354E+03  0.00000000000E+00 0.  1.
       21   -1    0    0  503  504  0.00000000000E+00  0.00000000000E+00 -0.98938875473E+03  0.98938875473E+03  0.00000000000E+00 0.  1.
  1000006    1    1    2  501    0 -0.95882280289E+02  0.30589227001E+01  0.10530514219E+03  0.37787821008E+03  0.35000000000E+03 0.  0.
 -1000006    1    1    2    0  502  0.13779158033E+03 -0.27642697305E+03 -0.41127507908E+03  0.62212987528E+03  0.35000000000E+03 0.  0.
        2    1    1    2  502    0 -0.57491059532E+02  0.22081581768E+03 -0.20941921262E+03  0.30971156562E+03  0.00000000000E+00 0.  1.
       -2    1    1    2    0  504  0.15581759490E+02  0.52552232666E+02 -0.67058361676E+02  0.86610347289E+02  0.00000000000E+00 0. -1.
<scales pt_clust_1="13000.00000" pt_clust_2="13000.00000" pt_clust_3="283.95635" pt_clust_4="283.95635"></scales>
<clustering>
<clus scale="   31.554">  5  6 -1 -1</clus>
<clus scale="  283.956">  2  5  1 -1</clus>
<clus scale="  370.217">  2  4  1 -1</clus>
<clus scale="  370.217">  1  3  2 -1</clus>
</clustering>
</event>
<event>
 5   1  0.3464723E-02  0.3588072E+03  0.7816531E-02  0.1059057E+00
       21   -1    0    0  504  502  0.00000000000E+00  0.00000000000E+00  0.13021157019E+04  0.13021157019E+04  0.00000000000E+00 0.  1.
       21   -1    0    0  502  503  0.00000000000E+00  0.00000000000E+00 -0.36218281063E+03  0.36218281063E+03  0.00000000000E+00 0.  1.
  1000006    1    1    2  501    0  0.28448422666E+02 -0.43621249856E+02  0.93885576780E+02  0.36609647324E+03  0.35000000000E+03 0.  0.
 -1000006    1    1    2    0  503 -0.98421194194E+02  0.28820115917E+02 -0.76694944707E+02  0.37269215861E+03  0.35000000000E+03 0.  0.
       21    1    1    2  504  501  0.69972771529E+02  0.14801133938E+02  0.92274225916E+03  0.92550988064E+03  0.00000000000E+00 0.  1.
<scales pt_clust_1="13000.00000" pt_clust_2="13000.00000" pt_clust_3="71.52106"></scales>
<clustering>
<clus scale="   71.521">  1  5  2 -1</clus>
<clus scale="  358.807">  2  4  1 -1</clus>
<clus scale="  358.807">  1  3  2 -1</clus>
</clustering>
</event>
<event>
 6   2  0.3464723E-02  0.4076121E+03  0.7816531E-02  0.1041175E+00
       21   -1    0    0  505  502  0.00000000000E+00  0.00000000000E+00  0.77955150699E+03  0.77955150699E+03  0.00000000000E+00 0. -1.
       21   -1    0    0  504  503  0.00000000000E+00  0.00000000000E+00 -0.73995517706E+03  0.73995517706E+03  0.00000000000E+00 0. -1.
  1000006    1    1    2  501    0  0.22005631011E+03 -0.10876889565E+03  0.25987801969E+02  0.42828824188E+03  0.35000000000E+03 0.  0.
 -1000006    1    1    2    0  503 -0.19267115189E+03  0.43722095695E+02 -0.41747883211E+03  0.57950182889E+03  0.35000000000E+03 0.  0.
       21    1    1    2  504  502 -0.82656981410E+02  0.95807768754E+02  0.68961355710E+02  0.14410750748E+03  0.00000000000E+00 0. -1.
       21    1    1    2  505  501  0.55271823185E+02 -0.30760968797E+02  0.36212600436E+03  0.36760910581E+03  0.00000000000E+00 0. -1.
<scales pt_clust_1="13000.00000" pt_clust_2="13000.00000" pt_clust_3="111.41688" pt_clust_4="63.25513"></scales>
<clustering>
<clus scale="   63.255">  1  6  2 -1</clus>
<clus scale="  111.417">  1  5  2 -1</clus>
<clus scale="  407.612">  2  4  1 -1</clus>
<clus scale="  407.612">  1  3  2 -1</clus>
</clustering>
</event>
<event>
 6   2  0.3464723E-02  0.7630693E+03  0.7816531E-02  0.9615067E-01
       21   -1    0    0  505  502  0.00000000000E+00  0.00000000000E+00  0.16431636546E+04  0.16431636546E+04  0.00000000000E+00 0. -1.
       21   -1    0    0  504  503  0.00000000000E+00  0.00000000000E+00 -0.64049982906E+03  0.64049982906E+03  0.00000000000E+00 0.  1.
  1000006    1    1    2  501    0 -0.47026620903E+03  0.46534817036E+03  0.42601143290E+03  0.86121133758E+03  0.35000000000E+03 0.  0.
 -1000006    1    1    2    0  503  0.40782080387E+03 -0.56027797680E+03 -0.32108150478E+01  0.77636301347E+03  0.35000000000E+03 0.  0.
       21    1    1    2  504  502  0.60821159720E+02  0.55392084990E+02  0.19779465636E+02  0.84609241871E+02  0.00000000000E+00 0.  1.
       21    1    1    2  505  501  0.16242454417E+01  0.39537721449E+02  0.56008374204E+03  0.56147989072E+03  0.00000000000E+00 0. -1.
<scales pt_clust_1="13000.00000" pt_clust_2="13000.00000" pt_clust_3="83.61749" pt_clust_4="39.57107"></scales>
<clustering>
<clus scale="   39.571">  1  6  2 -1</clus>
<clus scale="   83.617">  2  5  1 -1</clus>
<clus scale="  763.069">  2  4  1 -1</clus>
<clus scale="  763.069">  1  3  2 -1</clus>
</clustering>
</event>
<event>
 5   1  0.3464723E-02  0.4760265E+03  0.7816531E-02  0.1020233E+00
        2   -1    0    0  503    0  0.00000000000E+00  0.00000000000E+00  0.23845638631E+04  0.23845638631E+04  0.00000000000E+00 0.  1.
       21   -1    0    0  501  503  0.00000000000E+00  0.00000000000E+00 -0.71454610357E+03  0.71454610357E+03  0.00000000000E+00 0.  1.
  1000006    1    1    2  501    0  0.29393467934E+03 -0.12648191026E+03 -0.20396179902E+03  0.51623220047E+03  0.35000000000E+03 0.  0.
 -1000006    1    1    2    0  502 -0.28516817641E+03  0.15844152944E+03 -0.19279065079E+03  0.51584187705E+03  0.35000000000E+03 0.  0.
        2    1    1    2  502    0 -0.87665029324E+01 -0.31959619184E+02  0.20667702093E+04  0.20670358891E+04  0.00000000000E+00 0.  1.
<scales pt_clust_1="13000.00000" pt_clust_2="13000.00000" pt_clust_3="33.14014"></scales>
<clustering>
<clus scale="   33.140">  1  5  2 -1</clus>
<clus scale="  476.027">  2  3  1 -1</clus>
<clus scale="  476.027">  2  3  1 -1</clus>
</clustering>
</event>
<event>
 5   1  0.3464723E-02  0.7579029E+03  0.7816531E-02  0.9623033E-01
       -2   -1    0    0    0  501  0.00000000000E+00  0.00000000000E+00  0.92584581924E+03  0.92584581924E+03  0.00000000000E+00 0.  1.
        2   -1    0    0  502    0  0.00000000000E+00  0.00000000000E+00 -0.67806547033E+03  0.67806547033E+03  0.00000000000E+00 0. -1.
  1000006    1    1    2  502    0 -0.46559474052E+02  0.66297276530E+03 -0.37980331921E+02  0.75209253272E+03  0.35000000000E+03 0.  0.
 -1000006    1    1    2    0  503  0.75812377683E+02 -0.68000338027E+03  0.27145326597E+03  0.81506992915E+03  0.35000000000E+03 0.  0.
       21    1    1    2  503  501 -0.29252903631E+02  0.17030614973E+02  0.14307414865E+02  0.36748827700E+02  0.00000000000E+00 0. -1.
<scales pt_clust_1="13000.00000" pt_clust_2="13000.00000" pt_clust_3="33.84929"></scales>
<clustering>
<clus scale="   33.849">  1  5  2 -1</clus>
<clus scale=" 1425.778">  3  4 -1 -1</clus>
<clus scale="  757.903">  2  3  1 -1</clus>
</clustering>
</event>
<event>
 6   2  0.3464723E-02  0.3654405E+03  0.7816531E-02  0.1056450E+00
       21   -1    0    0  501  502  0.00000000000E+00  0.00000000000E+00  0.11593723706E+04  0.11593723706E+04  0.00000000000E+00 0. -1.
       21   -1    0    0  504  503  0.00000000000E+00  0.00000000000E+00 -0.29303936836E+03  0.29303936836E+03  0.00000000000E+00 0. -1.
  1000006    1    1    2  501    0 -0.88239435399E+02  0.26684413413E+02  0.68088159995E+03  0.77110181495E+03  0.35000000000E+03 0.  0.
 -1000006    1    1    2    0  503  0.15854349472E+03  0.69711059199E+02  0.12172449397E+03  0.40903853599E+03  0.35000000000E+03 0.  0.
       21    1    1    2  504  505  0.84985463269E+02 -0.85857111024E+01  0.10244073916E+02  0.86030136886E+02  0.00000000000E+00 0.  1.
       21    1    1    2  505  502 -0.15528952259E+03 -0.87809761509E+02  0.53482834385E+02  0.18624125112E+03  0.00000000000E+00 0.  1.
<scales pt_clust_1="13000.00000" pt_clust_2="13000.00000" pt_clust_3="85.41805" pt_clust_4="160.76263"></scales>
<clustering>
<clus scale="   85.418">  2  5  1 -1</clus>
<clus scale="  160.763">  2  6  1 -1</clus>
<clus scale="  365.440">  1  3  2 -1</clus>
<clus scale="  365.440">  1  3  2 -1</clus>
</clustering>
</event>
<event>
 4   0  0.3464723E-02  0.4913000E+03  0.7816531E-02  0.1016075E+00
       21   -1    0    0  503  502  0.00000000000E+00  0.00000000000E+00  0.13831841013E+04  0.13831841013E+04  0.00000000000E+00 0. -1.
       21   -1    0    0  501  503  0.00000000000E+00  0.00000000000E+00 -0.18653095136E+03  0.18653095136E+03  0.00000000000E+00 0. -1.
  1000006    1    1    2  501    0  0.20250688246E+03  0.27904603523E+03  0.39906043601E+03  0.63294941252E+03  0.35000000000E+03 0.  0.
 -1000006    1    1    2    0  502 -0.20250688246E+03 -0.27904603523E+03  0.79759271395E+03  0.93676564015E+03  0.35000000000E+03 0.  0.
<scales pt_clust_1="13000.00000" pt_clust_2="13000.00000"></scales>
<clustering>
<clus scale="  491.300">  2  3  1 -1</clus>
<clus scale="  491.300">  1  3  2 -1</clus>
</clustering>
</event>
<event>
 5   1  0.3464723E-02  0.3792402E+03  0.7816531E-02  0.1051215E+00
       21   -1    0    0  501  502  0.00000000000E+00  0.00000000000E+00  0.13039042665E+03  0.13039042665E+03  0.00000000000E+00 0. -1.
       21   -1    0    0  504  503  0.00000000000E+00  0.00000000000E+00 -0.18058311262E+04  0.18058311262E+04  0.00000000000E+00 0. -1.
  1000006    1    1    2  501    0 -0.18104616451E+03  0.75996621817E+01 -0.79966784728E+03  0.89151788234E+03  0.35000000000E+03 0.  0.
 -1000006    1    1    2    0  503  0.11758991323E+03 -0.13430052677E+02 -0.90280636992E+03  0.97548300630E+03  0.35000000000E+03 0.  0.
       21    1    1    2  504  502  0.63456251274E+02  0.58303904958E+01  0.27033517641E+02  0.69220664220E+02  0.00000000000E+00 0. -1.
<scales pt_clust_1="13000.00000" pt_clust_2="13000.00000" pt_clust_3="63.72354"></scales>
<clustering>
<clus scale="   63.724">  1  5  2 -1</clus>
<clus scale="  379.240">  1  3  2 -1</clus>
<clus scale="  379.240">  1  3  2 -1</clus>
</clustering>
</event>
<event>
 4   0  0.3464723E-02  0.4042484E+03  0.7816531E-02  0.1042318E+00
       21   -1    0    0  501  502  0.00000000000E+00  0.00000000000E+00  0.48088972086E+03  0.48088972086E+03  0.00000000000E+00 0.  1.
       21   -1    0    0  502  503  0.00000000000E+00  0.00000000000E+00 -0.40991522176E+03  0.40991522176E+03  0.00000000000E+00 0.  1.
  1000006    1    1    2  501    0 -0.12578062789E+03 -0.15841730390E+03  0.21966800216E+03  0.46007699323E+03  0.35000000000E+03 0.  0.
 -1000006    1    1    2    0  503  0.12578062789E+03  0.15841730390E+03 -0.14869350306E+03  0.43072794938E+03  0.35000000000E+03 0.  0.
<scales pt_clust_1="13000.00000" pt_clust_2="13000.00000"></scales>
<clustering>
<clus scale="  404.248">  1  3  2 -1</clus>
<clus scale="  404.248">  1  3  2 -1</clus>
</clustering>
</event>
<event>
 5   1  0.3464723E-02  0.3669895E+03  0.7816531E-02  0.1055850E+00
       21   -1    0    0  504  502  0.00000000000E+00  0.00000000000E+00  0.21980466722E+04  0.21980466722E+04  0.00000000000E+00 0. -1.
       21   -1    0    0  501  503  0.00000000000E+00  0.00000000000E+00 -0.96842091002E+02  0.96842091002E+02  0.00000000000E+00 0. -1.
  1000006    1    1    2  501    0 -0.12969122840E+03  0.11878013336E+01  0.48010453768E+03  0.60812958545E+03  0.35000000000E+03 0.  0.
 -1000006    1    1    2    0  502  0.10065443253E+03  0.32008636592E+02  0.15931178392E+04  0.16345275517E+04  0.35000000000E+03 0.  0.
       21    1    1    2  504  503  0.29036795876E+02 -0.33196437925E+02  0.27982204341E+02  0.52231626104E+02  0.00000000000E+00 0.  1.
<scales pt_clust_1="13000.00000" pt_clust_2="13000.00000" pt_clust_3="44.10373"></scales>
<clustering>
<clus scale="   44.104">  2  5  1 -1</clus>
<clus scale="  366.989">  2  3  1 -1</clus>
<clus scale="  366.989">  1  3  2 -1</clus>
</clustering>
</event>
<event>
 6   2  0.3464723E-02  0.3660017E+03  0.7816531E-02  0.1056232E+00
        1   -1    0    0  501    0  0.00000000000E+00  0.00000000000E+00  0.14728187197E+04  0.14728187197E+04  0.00000000000E+00 0.  1.
       21   -1    0    0  504  503  0.00000000000E+00  0.00000000000E+00 -0.62528710357E+03  0.62528710357E+03  0.00000000000E+00 0.  1.
  1000006    1    1    2  501    0 -0.29370171005E+03  0.26565009047E+02  0.17033849996E+03  0.48834577787E+03  0.35000000000E+03 0.  0.
 -1000006    1    1    2    0  503 -0.80972951710E+01 -0.10583049275E+03 -0.23902739808E+03  0.43692076675E+03  0.35000000000E+03 0.  0.
       21    1    1    2  504  502  0.33501331613E+03  0.35110234344E+02  0.95311274535E+02  0.35007269187E+03  0.00000000000E+00 0.  1.
        1    1    1    2  502    0 -0.33214310911E+02  0.44155249357E+02  0.82090923968E+03  0.82276658676E+03  0.00000000000E+00 0.  1.
<scales pt_clust_1="13000.00000" pt_clust_2="13000.00000" pt_clust_3="327.52347" pt_clust_4="55.25284"></scales>
<clustering>
<clus scale="   55.253">  1  6  2 -1</clus>
<clus scale="  327.523">  1  5  2 -1</clus>
<clus scale="  366.002">  1  3  2 -1</clus>
<clus scale="  366.002">  2  3  1 -1</clus>
</clustering>
</event>
<event>
 4   0  0.3464723E-02  0.3532322E+03  0.7816531E-02  0.1061296E+00
       21   -1    0    0  503  502  0.00000000000E+00  0.00000000000E+00  0.32177774163E+03  0.32177774163E+03  0.00000000000E+00 0. -1.
       21   -1    0    0  501  503  0.00000000000E+00  0.00000000000E+00 -0.50570204353E+03  0.50570204353E+03  0.00000000000E+00 0. -1.
  1000006    1    1    2  501    0 -0.89935411374E+01 -0.46820248750E+02 -0.29176956869E+03  0.45815117668E+03  0.35000000000E+03 0.  0.
 -1000006    1    1    2    0  502  0.89935411374E+01  0.46820248750E+02  0.10784526679E+03  0.36932860848E+03  0.35000000000E+03 0.  0.
<scales pt_clust_1="13000.00000" pt_clust_2="13000.00000"></scales>
<clustering>
<clus scale="  353.232">  2  3  1 -1</clus>
<clus scale="  353.232">  1  3  2 -1</clus>
</clustering>
</event>
<event>
 5   1  0.3464723E-02  0.4041047E+03  0.7816531E-02  0.1042368E+00
       21   -1    0    0  501  502  0.00000000000E+00  0.00000000000E+00  0.12232527730E+04  0.12232527730E+04  0.00000000000E+00 0. -1.
       21   -1    0    0  504  503  0.00000000000E+00  0.00000000000E+00 -0.25139493382E+03  0.25139493382E+03  0.00000000000E+00 0. -1.
  1000006    1    1    2  501    0  0.53305323920E+02  0.23256026861E+03  0.79660123800E+03  0.90221908009E+03  0.35000000000E+03 0.  0.
 -1000006    1    1    2    0  503  0.50173592724E+02 -0.10517426032E+03  0.64634256119E+02  0.37450847988E+03  0.35000000000E+03 0.  0.
       21    1    1    2  504  502 -0.10347891664E+03 -0.12738600829E+03  0.11062234506E+03  0.19792014684E+03  0.00000000000E+00 0. -1.
<scales pt_clust_1="13000.00000" pt_clust_2="13000.00000" pt_clust_3="164.11911"></scales>
<clustering>
<clus scale="  164.119">  2  5  1 -1</clus>
<clus scale="  404.105">  1  3  2 -1</clus>
<clus scale="  404.105">  1  3  2 -1</clus>
</clustering>
</event>
<event>
 5   1  0.3464723E-02  0.4291359E+03  0.7816531E-02  0.1034133E+00
       21   -1    0    0  501  502  0.00000000000E+00  0.00000000000E+00  0.16415938883E+03  0.16415938883E+03  0.00000000000E+00 0. -1.
       21   -1    0    0  504  503  0.00000000000E+00  0.00000000000E+00 -0.12438867815E+04  0.12438867815E+04  0.00000000000E+00 0.  1.
  1000006    1    1    2  501    0  0.87611158486E+02  0.21630197803E+03 -0.48782694869E+03  0.64415634178E+03  0.35000000000E+03 0.  0.
 -1000006    1    1    2    0  503 -0.67023410556E+02 -0.25557516493E+03 -0.53920603094E+03  0.69502082436E+03  0.35000000000E+03 0.  0.
       21    1    1    2  504  502 -0.20587747930E+02  0.39273186898E+02 -0.52694413081E+02  0.68869004232E+02  0.00000000000E+00 0. -1.
<scales pt_clust_1="13000.00000" pt_clust_2="13000.00000" pt_clust_3="44.34229"></scales>
<clustering>
<clus scale="   44.342">  1  5  2 -1</clus>
<clus scale="  429.136">  2  4  1 -1</clus>
<clus scale="  429.136">  1  3  2 -1</clus>
</clustering>
</event>
<event>
 6   2  0.3464723E-02  0.6775523E+03  0.7816531E-02  0.9756410E-01
        2   -1    0    0  501    0  0.00000000000E+00  0.00000000000E+00  0.31491068223E+04  0.31491068223E+04  0.00000000000E+00 0.  1.
        2   -1    0    0  502    0  0.00000000000E+00  0.00000000000E+00 -0.10020900679E+04  0.10020900679E+04  0.00000000000E+00 0. -1.
  1000006    1    1    2  501    0  0.53450469166E+03 -0.27972094687E+03  0.37291971733E+03  0.79089075674E+03  0.35000000000E+03 0.  0.
 -1000006    1    1    2    0  503 -0.53066655600E+03  0.20946539416E+03  0.27013506185E+03  0.72177260730E+03  0.35000000000E+03 0.  0.
        2    1    1    2  502    0 -0.59468587707E+02  0.53403769394E+02  0.20689850876E+04  0.20705283790E+04  0.00000000000E+00 0.  1.
        2    1    1    2  503    0  0.55630452048E+02  0.16851783309E+02 -0.56502311238E+03  0.56800514726E+03  0.00000000000E+00 0. -1.
<scales pt_clust_1="13000.00000" pt_clust_2="13000.00000" pt_clust_3="79.87461" pt_clust_4="58.12684"></scales>
<clustering>
<clus scale="   58.127">  2  6  1 -1</clus>
<clus scale="   79.875">  1  5  2 -1</clus>
<clus scale="  677.552">  2  4  1 -1</clus>
<clus scale="  677.552">  1  3  2 -1</clus>
</clustering>
</event>
<event>
 6   2  0.3464723E-02  0.5977979E+03  0.7816531E-02  0.1005808E+00
       21   -1    0    0  504  502  0.00000000000E+00  0.00000000000E+00  0.39017597868E+03  0.39017597868E+03  0.00000000000E+00 0.  1.
       21   -1    0    0  505  503  0.00000000000E+00  0.00000000000E+00 -0.23057102533E+04  0.23057102533E+04  0.00000000000E+00 0.  1.
  1000006    1    1    2  501    0  0.39001765337E+03 -0.11227578590E+03 -0.68477423049E+03  0.86956044573E+03  0.35000000000E+03 0.  0.
 -1000006    1    1    2    0  502  0.12387278898E+03  0.33468316841E+02  0.18649872664E+02  0.37324578207E+03  0.35000000000E+03 0.  0.
       21    1    1    2  504  503 -0.55770905472E+03  0.80947025218E+02 -0.68526394223E+03  0.88723079361E+03  0.00000000000E+00 0.  1.
       21    1    1    2  505  501  0.43818612379E+02 -0.21395561601E+01 -0.56414597456E+03  0.56584921057E+03  0.00000000000E+00 0.  1.
<scales pt_clust_1="13000.00000" pt_clust_2="13000.00000" pt_clust_3="484.62591" pt_clust_4="43.87082"></scales>
<clustering>
<clus scale="   43.871">  2  6  1 -1</clus>
<clus scale="  374.267">  1  4  2 -1</clus>
<clus scale="  484.626">  1  5  2 -1</clus>
<clus scale="  597.798">  1  3  2 -1</clus>
</clustering>
</event>
<event>
 5   1  0.3464723E-02  0.6587392E+03  0.7816531E-02  0.9790518E-01
       21   -1    0    0  504  502  0.00000000000E+00  0.00000000000E+00  0.55425533843E+03  0.55425533843E+03  0.00000000000E+00 0. -1.
       21   -1    0    0  501  503  0.00000000000E+00  0.00000000000E+00 -0.11659908861E+04  0.11659908861E+04  0.00000000000E+00 0.  1.
  1000006    1    1    2  501    0 -0.21026220096E+03 -0.53328732204E+03 -0.43588106259E+03  0.80068586957E+03  0.35000000000E+03 0.  0.
 -1000006    1    1    2    0  502  0.35389501261E+02  0.55376542503E+03 -0.28186397883E+03  0.71404192126E+03  0.35000000000E+03 0.  0.
       21    1    1    2  504  503  0.17487269970E+03 -0.20478102992E+02  0.10600949379E+03  0.20551843366E+03  0.00000000000E+00 0. -1.
<scales pt_clust_1="13000.00000" pt_clust_2="13000.00000" pt_clust_3="176.06764"></scales>
<clustering>
<clus scale="  176.068">  1  5  2 -1</clus>
<clus scale="  658.739">  2  3  1 -1</clus>
<clus scale="  658.739">  1  3  2 -1</clus>
</clustering>
</event>
<event>
 6   2  0.3464723E-02  0.4090792E+03  0.7816531E-02  0.1040680E+00
       21   -1    0    0  502  503  0.00000000000E+00  0.00000000000E+00  0.23921584788E+04  0.23921584788E+04  0.00000000000E+00 0.  1.
       21   -1    0    0  501  504  0.00000000000E+00  0.00000000000E+00 -0.13653222941E+03  0.13653222941E+03  0.00000000000E+00 0. -1.
  1000006    1    1    2  501    0  0.20085274105E+03  0.15624486062E+03  0.58407511803E+03  0.72690991433E+03  0.35000000000E+03 0.  0.
 -1000006    1    1    2    0  503 -0.81796682302E+02 -0.15218743423E+03  0.67147617003E+03  0.77668008812E+03  0.35000000000E+03 0.  0.
        3    1    1    2  502    0 -0.15205420734E+03  0.48099100029E+01  0.96194820778E+03  0.97390347142E+03  0.00000000000E+00 0.  1.
       -3    1    1    2    0  504  0.32998148596E+02 -0.88673363924E+01  0.38126753530E+02  0.51197234303E+02  0.00000000000E+00 0. -1.
<scales pt_clust_1="13000.00000" pt_clust_2="13000.00000" pt_clust_3="150.60121" pt_clust_4="34.16881"></scales>
<clustering>
<clus scale="   34.169">  2  6  1 -1</clus>
<clus scale="  150.601">  1  5  2 -1</clus>
<clus scale="  550.166">  3  4 -1 -1</clus>
<clus scale="  409.079">  1  3  2 -1</clus>
</clustering>
</event>
<event>
 5   1  0.3464723E-02  0.4013499E+03  0.7816531E-02  0.1043313E+00
       21   -1    0    0  502  503  0.00000000000E+00  0.00000000000E+00  0.61611156290E+03  0.61611156290E+03  0.00000000000E+00 0. -1.
       -1   -1    0    0    0  501  0.00000000000E+00  0.00000000000E+00 -0.59867652770E+03  0.59867652770E+03  0.00000000000E+00 0. -1.
  1000006    1    1    2  502    0  0.17654075161E+03  0.71177193041E+02  0.40443136721E+03  0.56771256862E+03  0.35000000000E+03 0.  0.
 -1000006    1    1    2    0  501 -0.20708084997E+03 -0.77881853671E+02 -0.20429706640E+03  0.46171999404E+03  0.35000000000E+03 0.  0.
       -1    1    1    2    0  503  0.30540098358E+02  0.67046606298E+01 -0.18269926561E+03  0.18535552794E+03  0.00000000000E+00 0. -1.
<scales pt_clust_1="13000.00000" pt_clust_2="13000.00000" pt_clust_3="31.26740"></scales>
<clustering>
<clus scale="   31.267">  2  5  1 -1</clus>
<clus scale="  401.350">  2  4  1 -1</clus>
<clus scale="  401.350">  1  3  2 -1</clus>
</clustering>
</event>
<event>
 5   1  0.3464723E-02  0.3691597E+03  0.7816531E-02  0.1055015E+00
       21   -1    0    0  503  502  0.00000000000E+00  0.00000000000E+00  0.28560457180E+03  0.28560457180E+03  0.00000000000E+00 0.  1.
       21   -1    0    0  501  503  0.00000000000E+00  0.00000000000E+00 -0.65671847769E+03  0.65671847769E+03  0.00000000000E+00 0.  1.
  1000006    1    1    2  501    0  0.44868275423E+02  0.12396300942E+03 -0.34843873840E+03  0.51116488950E+03  0.35000000000E+03 0.  0.
 -1000006    1    1    2    0  504 -0.99423960451E+01 -0.91864923482E+02 -0.64767225744E+02  0.36774013778E+03  0.35000000000E+03 0.  0.
       21    1    1    2  504  502 -0.34925879378E+02 -0.32098085942E+02  0.42092058259E+02  0.63418022201E+02  0.00000000000E+00 0.  1.
<scales pt_clust_1="13000.00000" pt_clust_2="13000.00000" pt_clust_3="47.43526"></scales>
<clustering>
<clus scale="   47.435">  1  5  2 -1</clus>
<clus scale="  369.160">  1  4  2 -1</clus>
<clus scale="  369.160">  1  3  2 -1</clus>
</clustering>
</event>
<event>
 6   2  0.3464723E-02  0.3504317E+03  0.7816531E-02  0.1062438E+00
       21   -1    0    0  501  502  0.00000000000E+00  0.00000000000E+00  0.14138160696E+03  0.14138160696E+03  0.00000000000E+00 0.  1.
       21   -1    0    0  504  503  0.00000000000E+00  0.00000000000E+00 -0.13656595011E+04  0.13656595011E+04  0.00000000000E+00 0.  1.
  1000006    1    1    2  501    0 -0.11733269379E+02  0.15152846839E+02 -0.37754114566E+03  0.51517433462E+03  0.35000000000E+03 0.  0.
 -1000006    1    1    2    0  505 -0.14826008529E+02 -0.19582623868E+02 -0.39228726367E+03  0.52630085210E+03  0.35000000000E+03 0.  0.
       21    1    1    2  504  502 -0.36226737400E+02 -0.87847068939E-01 -0.21227624878E+03  0.21534528092E+03  0.00000000000E+00 0.  1.
       21    1    1    2  505  503  0.62786015307E+02  0.45176240974E+01 -0.24217323603E+03  0.25022064043E+03  0.00000000000E+00 0.  1.
<scales pt_clust_1="13000.00000" pt_clust_2="13000.00000" pt_clust_3="36.22684" pt_clust_4="55.22643"></scales>
<clustering>
<clus scale="   36.227">  2  5  1 -1</clus>
<clus scale="   55.226">  2  6  1 -1</clus>
<clus scale="  350.432">  1  3  2 -1</clus>
<clus scale="  350.432">  1  3  2 -1</clus>
</clustering>
</event>
<event>
 6   2  0.3464723E-02  0.4598300E+03  0.7816531E-02  0.1024831E+00
        2   -1    0    0  503    0  0.00000000000E+00  0.00000000000E+00  0.21068236820E+04  0.21068236820E+04  0.00000000000E+00 0. -1.
        1   -1    0    0  501    0  0.00000000000E+00  0.00000000000E+00 -0.40183435363E+03  0.40183435363E+03  0.00000000000E+00 0. -1.
  1000006    1    1    2  501    0 -0.30987454875E+03  0.32162583252E+02  0.96436206433E+03  0.10721710959E+04  0.35000000000E+03 0.  0.
 -1000006    1    1    2    0  502  0.28276274795E+03 -0.31540605010E+02  0.86442619241E+03  0.97502934495E+03  0.35000000000E+03 0.  0.
        2    1    1    2  502    0 -0.23356896898E+02 -0.57572121420E+02  0.15788861598E+03  0.16967294674E+03  0.00000000000E+00 0. -1.
        1    1    1    2  503    0  0.50468697691E+02  0.56950143178E+02 -0.28168754431E+03  0.29178464811E+03  0.00000000000E+00 0. -1.
<scales pt_clust_1="13000.00000" pt_clust_2="13000.00000" pt_clust_3="62.12965" pt_clust_4="75.94255"></scales>
<clustering>
<clus scale="   62.130">  1  5  2 -1</clus>
<clus scale="   75.943">  2  6  1 -1</clus>
<clus scale="  459.830">  1  4  2 -1</clus>
<clus scale="  459.830">  1  3  2 -1</clus>
</clustering>
</event>
<event>
 6   2  0.3464723E-02  0.5521330E+03  0.7816531E-02  0.1001001E+00
       21   -1    0    0  505  502  0.00000000000E+00  0.00000000000E+00  0.11508708032E+04  0.11508708032E+04  0.00000000000E+00 0.  1.
       21   -1    0    0  501  503  0.00000000000E+00  0.00000000000E+00 -0.74455510304E+03  0.74455510304E+03  0.00000000000E+00 0.  1.
  1000006    1    1    2  501    0 -0.41258474324E+03  0.23053496578E+03 -0.26877797752E+03  0.64661746188E+03  0.35000000000E+03 0.  0.
 -1000006    1    1    2    0  504  0.35830614448E+03  0.18424535125E+03  0.32255815227E+03  0.62359714899E+03  0.35000000000E+03 0.  0.
       21    1    1    2  504  502  0.14065184220E+03 -0.30252564612E+03  0.35002350662E+03  0.48355057902E+03  0.00000000000E+00 0.  1.
       21    1    1    2  505  503 -0.86373243440E+02 -0.11225467090E+03  0.25120187912E+01  0.14166071636E+03  0.00000000000E+00 0.  1.
<scales pt_clust_1="13000.00000" pt_clust_2="13000.00000" pt_clust_3="340.31717" pt_clust_4="141.63844"></scales>
<clustering>
<clus scale="  141.638">  2  6  1 -1</clus>
<clus scale="  340.317">  1  5  2 -1</clus>
<clus scale="  552.133">  1  4  2 -1</clus>
<clus scale="  552.133">  1  3  2 -1</clus>
</clustering>
</event>
<event>
 6   2  0.3464723E-02  0.3506576E+03  0.7816531E-02  0.1062345E+00
       21   -1    0    0  505  502  0.00000000000E+00  0.00000000000E+00  0.40517813997E+03  0.40517813997E+03  0.00000000000E+00 0. -1.
       21   -1    0    0  504  503  0.00000000000E+00  0.00000000000E+00 -0.18114202668E+04  0.18114202668E+04  0.00000000000E+00 0. -1.
  1000006    1    1    2  501    0 -0.55023917795E+02 -0.20318492282E+02 -0.39818210034E+02  0.35710777436E+03  0.35000000000E+03 0.  0.
 -1000006    1    1    2    0  502 -0.32008245964E+02  0.11652924590E+02 -0.13987250433E+02  0.35193175707E+03  0.35000000000E+03 0.  0.
       21    1    1    2  504  501 -0.24151340898E+00 -0.39822067933E+02 -0.13974675134E+04  0.13980348016E+04  0.00000000000E+00 0. -1.
       21    1    1    2  505  503  0.87273677168E+02  0.48487635625E+02  0.45030847070E+02  0.10952407371E+03  0.00000000000E+00 0.  1.
<scales pt_clust_1="13000.00000" pt_clust_2="13000.00000" pt_clust_3="39.82280" pt_clust_4="98.35173"></scales>
<clustering>
<clus scale="   39.823">  2  5  1 -1</clus>
<clus scale="   98.352">  1  6  2 -1</clus>
<clus scale="  350.658">  1  4  2 -1</clus>
<clus scale="  350.658">  1  3  2 -1</clus>
</clustering>
</event>
<event>
 5   1  0.3464723E-02  0.4575596E+03  0.7816531E-02  0.1025491E+00
       21   -1    0    0  503  502  0.00000000000E+00  0.00000000000E+00  0.82757536873E+03  0.82757536873E+03  0.00000000000E+00 0. -1.
       21   -1    0    0  504  503  0.00000000000E+00  0.00000000000E+00 -0.32508961820E+03  0.32508961820E+03  0.00000000000E+00 0. -1.
  1000006    1    1    2  501    0  0.23730032117E+03  0.20025401077E+03  0.27961085268E+03  0.54506452847E+03  0.35000000000E+03 0.  0.
 -1000006    1    1    2    0  502 -0.21947883271E+03 -0.17429474980E+03  0.28962898224E+03  0.53379262375E+03  0.35000000000E+03 0.  0.
       21    1    1    2  504  501 -0.17821488458E+02 -0.25959260964E+02 -0.66754084402E+02  0.73807834713E+02  0.00000000000E+00 0. -1.
<scales pt_clust_1="13000.00000" pt_clust_2="13000.00000" pt_clust_3="31.48791"></scales>
<clustering>
<clus scale="   31.488">  2  5  1 -1</clus>
<clus scale="  457.560">  2  3  1 -1</clus>
<clus scale="  457.560">  1  3  2 -1</clus>
</clustering>
</event>
<event>
 5   1  0.3464723E-02  0.3530002E+03  0.7816531E-02  0.1061390E+00
       21   -1    0    0  501  503  0.00000000000E+00  0.00000000000E+00  0.27897472358E+03  0.27897472358E+03  0.00000000000E+00 0. -1.
        2   -1    0    0  503    0  0.00000000000E+00  0.00000000000E+00 -0.19432735178E+04  0.19432735178E+04  0.00000000000E+00 0. -1.
  1000006    1    1    2  501    0 -0.35337826711E+02 -0.24948088647E+02  0.68858714953E+02  0.35932254556E+03  0.35000000000E+03 0.  0.
 -1000006    1    1    2    0  502  0.71162959766E+02 -0.19387880357E+02 -0.43348897711E+03  0.56200778466E+03  0.35000000000E+03 0.  0.
        2    1    1    2  502    0 -0.35825133055E+02  0.44335969003E+02 -0.12996685321E+04  0.13009179112E+04  0.00000000000E+00 0. -1.
<scales pt_clust_1="13000.00000" pt_clust_2="13000.00000" pt_clust_3="57.00104"></scales>
<clustering>
<clus scale="   57.001">  2  5  1 -1</clus>
<clus scale="  353.000">  1  3  2 -1</clus>
<clus scale="  353.000">  1  3  2 -1</clus>
</clustering>
</event>
<event>
 5   1  0.3464723E-02  0.4636994E+03  0.7816531E-02  0.1023714E+00
       -2   -1    0    0    0  501  0.00000000000E+00  0.00000000000E+00  0.29084438189E+03  0.29084438189E+03  0.00000000000E+00 0. -1.
        2   -1    0    0  503    0  0.00000000000E+00  0.00000000000E+00 -0.10243734952E+04  0.10243734952E+04  0.00000000000E+00 0.  1.
  1000006    1    1    2  502    0 -0.23936226065E+03 -0.18560705087E+03 -0.52168743097E+02  0.46579592840E+03  0.35000000000E+03 0.  0.
 -1000006    1    1    2    0  501  0.22121277414E+03  0.21561167203E+03 -0.59542447773E+03  0.75660676262E+03  0.35000000000E+03 0.  0.
       21    1    1    2  503  502  0.18149486510E+02 -0.30004621153E+02 -0.85935892518E+02  0.92815186118E+02  0.00000000000E+00 0.  1.
<scales pt_clust_1="13000.00000" pt_clust_2="13000.00000" pt_clust_3="35.06681"></scales>
<clustering>
<clus scale="   35.067">  2  5  1 -1</clus>
<clus scale="  840.334">  3  4 -1 -1</clus>
<clus scale="  463.699">  2  3  1 -1</clus>
</clustering>
</event>
<event>
 5   1  0.3464723E-02  0.3876308E+03  0.7816531E-02  0.1048149E+00
       21   -1    0    0  502  503  0.00000000000E+00  0.00000000000E+00  0.96515747715E+03  0.96515747715E+03  0.00000000000E+00 0.  1.
       -2   -1    0    0    0  501  0.00000000000E+00  0.00000000000E+00 -0.95397253599E+03  0.95397253599E+03  0.00000000000E+00 0.  1.
  1000006    1    1    2  502    0 -0.11133336562E+02  0.15261791236E+03  0.48942987047E+03  0.62085245949E+03  0.35000000000E+03 0.  0.
 -1000006    1    1    2    0  501  0.55585479140E+02 -0.18085924111E+03  0.31241320839E+03  0.50586739701E+03  0.35000000000E+03 0.  0.
       -2    1    1    2    0  503 -0.44452142577E+02  0.28241328749E+02 -0.79065813770E+03  0.79241015663E+03  0.00000000000E+00 0.  1.
<scales pt_clust_1="13000.00000" pt_clust_2="13000.00000" pt_clust_3="52.66465"></scales>
<clustering>
<clus scale="   52.665">  2  5  1 -1</clus>
<clus scale="  387.631">  2  4  1 -1</clus>
<clus scale="  387.631">  1  3  2 -1</clus>
</clustering>
</event>
<event>
 5   1  0.3464723E-02  0.3639823E+03  0.7816531E-02  0.1057018E+00
       21   -1    0    0  504  502  0.00000000000E+00  0.00000000000E+00  0.14914496959E+03  0.14914496959E+03  0.00000000000E+00 0. -1.
       21   -1    0    0  502  503  0.00000000000E+00  0.00000000000E+00 -0.14948077707E+04  0.14948077707E+04  0.00000000000E+00 0. -1.
  1000006    1    1    2  501    0 -0.60603228891E+02 -0.70224655454E+02 -0.43279669037E+03  0.56428470543E+03  0.35000000000E+03 0.  0.
 -1000006    1    1    2    0  503  0.89795831040E+02  0.54741587284E+02 -0.95707356556E+03  0.10244753499E+04  0.35000000000E+03 0.  0.
       21    1    1    2  504  501 -0.29192602149E+02  0.15483068170E+02  0.44207454774E+02  0.55192685003E+02  0.00000000000E+00 0. -1.
<scales pt_clust_1="13000.00000" pt_clust_2="13000.00000" pt_clust_3="33.04442"></scales>
<clustering>
<clus scale="   33.044">  1  5  2 -1</clus>
<clus scale="  363.982">  1  3  2 -1</clus>
<clus scale="  363.982">  1  3  2 -1</clus>
</clustering>
</event>
<event>
 4   0  0.3464723E-02  0.3773130E+03  0.7816531E-02  0.1051931E+00
       21   -1    0    0  503  502  0.00000000000E+00  0.00000000000E+00  0.39127575083E+03  0.39127575083E+03  0.00000000000E+00 0. -1.
       21   -1    0    0  501  503  0.00000000000E+00  0.00000000000E+00 -0.37202562756E+03  0.37202562756E+03  0.00000000000E+00 0. -1.
  1000006    1    1    2  501    0  0.33706696653E+02 -0.13685365779E+03 -0.46957426716E+02  0.38022370386E+03  0.35000000000E+03 0.  0.
 -1000006    1    1    2    0  502 -0.33706696653E+02  0.13685365779E+03  0.66207549991E+02  0.38307767453E+03  0.35000000000E+03 0.  0.
<scales pt_clust_1="13000.00000" pt_clust_2="13000.00000"></scales>
<clustering>
<clus scale="  377.313">  2  3  1 -1</clus>
<clus scale="  377.313">  1  3  2 -1</clus>
</clustering>
</event>
<event>
 4   0  0.3464723E-02  0.3687844E+03  0.7816531E-02  0.1055159E+00
       21   -1    0    0  503  502  0.00000000000E+00  0.00000000000E+00  0.32649172027E+03  0.32649172027E+03  0.00000000000E+00 0. -1.
       21   -1    0    0  501  503  0.00000000000E+00  0.00000000000E+00 -0.94726297125E+03  0.94726297125E+03  0.00000000000E+00 0. -1.
  1000006    1    1    2  501    0 -0.83245078304E+02  0.81068826477E+02 -0.78708891794E+03  0.86920127844E+03  0.35000000000E+03 0.  0.
 -1000006    1    1    2    0  502  0.83245078304E+02 -0.81068826477E+02  0.16631766696E+03  0.40455341308E+03  0.35000000000E+03 0.  0.
<scales pt_clust_1="13000.00000" pt_clust_2="13000.00000"></scales>
<clustering>
<clus scale="  368.784">  2  3  1 -1</clus>
<clus scale="  368.784">  1  3  2 -1</clus>
</clustering>
</event>
<event>
 5   1  0.3464723E-02  0.9323503E+03  0.7816531E-02  0.9386022E-01
        2   -1    0    0  501    0  0.00000000000E+00  0.00000000000E+00  0.12225468774E+04  0.12225468774E+04  0.00000000000E+00 0. -1.
       21   -1    0    0  502  503  0.00000000000E+00  0.00000000000E+00 -0.60076001294E+03  0.60076001294E+03  0.00000000000E+00 0. -1.
  1000006    1    1    2  501    0  0.35153820724E+03 -0.20098454610E+03  0.50540972448E+01  0.53525642717E+03  0.35000000000E+03 0.  0.
 -1000006    1    1    2    0  503  0.11307497681E+03 -0.14179265207E+03 -0.59722123454E+02  0.39869517001E+03  0.35000000000E+03 0.  0.
        2    1    1    2  502    0 -0.46461318405E+03  0.34277719818E+03  0.67645489070E+03  0.88935529320E+03  0.00000000000E+00 0. -1.
<scales pt_clust_1="13000.00000" pt_clust_2="13000.00000" pt_clust_3="577.37476"></scales>
<clustering>
<clus scale="  369.668">  3  4 -1 -1</clus>
<clus scale="  577.375">  1  5  2 -1</clus>
<clus scale="  932.350">  2  3  1 -1</clus>
</clustering>
</event>
<event>
 6   2  0.3464723E-02  0.3590664E+03  0.7816531E-02  0.1058954E+00
       -1   -1    0    0    0  501  0.00000000000E+00  0.00000000000E+00  0.40037775000E+03  0.40037775000E+03  0.00000000000E+00 0. -1.
       21   -1    0    0  502  503  0.00000000000E+00  0.00000000000E+00 -0.22002280672E+04  0.22002280672E+04  0.00000000000E+00 0. -1.
  1000006    1    1    2  502    0  0.32756425942E+02 -0.70265946341E+02  0.11127440793E+03  0.37535620484E+03  0.35000000000E+03 0.  0.
 -1000006    1    1    2    0  501  0.14388100539E+03  0.90353097647E+02 -0.14876910882E+03  0.41653051954E+03  0.35000000000E+03 0.  0.
       21    1    1    2  504  503 -0.32989997808E+02 -0.14618863417E+02 -0.15604524122E+04  0.15608695595E+04  0.00000000000E+00 0. -1.
       -1    1    1    2    0  504 -0.14364743353E+03 -0.54682878894E+01 -0.20190320415E+03  0.24784953334E+03  0.00000000000E+00 0. -1.
<scales pt_clust_1="13000.00000" pt_clust_2="13000.00000" pt_clust_3="36.08395" pt_clust_4="155.60898"></scales>
<clustering>
<clus scale="   36.084">  2  5  1 -1</clus>
<clus scale="  155.609">  2  6  1 -1</clus>
<clus scale="  475.998">  3  4 -1 -1</clus>
<clus scale="  359.066">  2  3  1 -1</clus>
</clustering>
</event>
<event>
 6   2  0.3464723E-02  0.8341075E+03  0.7816531E-02  0.9511919E-01
       21   -1    0    0  505  502  0.00000000000E+00  0.00000000000E+00  0.10555587687E+04  0.10555587687E+04  0.00000000000E+00 0.  1.
       21   -1    0    0  504  503  0.00000000000E+00  0.00000000000E+00 -0.11933697404E+04  0.11933697404E+04  0.00000000000E+00 0. -1.
  1000006    1    1    2  501    0 -0.72426322252E+03  0.11009877556E+03 -0.27005589312E+03  0.85563376586E+03  0.35000000000E+03 0.  0.
 -1000006    1    1    2    0  502  0.76458739249E+03 -0.16927157329E+03 -0.26424673988E+03  0.89753723367E+03  0.35000000000E+03 0.  0.
       21    1    1    2  504  501 -0.27763010484E+02  0.23118977216E+02 -0.42117305506E+02  0.55489992627E+02  0.00000000000E+00 0. -1.
       21    1    1    2  505  503 -0.12561159490E+02  0.36053820516E+02  0.43860896676E+03  0.44026751689E+03  0.00000000000E+00 0.  1.
<scales pt_clust_1="13000.00000" pt_clust_2="13000.00000" pt_clust_3="36.12855" pt_clust_4="38.20176"></scales>
<clustering>
<clus scale="   36.129">  2  5  1 -1</clus>
<clus scale="   38.202">  1  6  2 -1</clus>
<clus scale="  834.107">  2  3  1 -1</clus>
<clus scale="  834.107">  1  3  2 -1</clus>
</clustering>
</event>
<event>
 5   1  0.3464723E-02  0.9038032E+03  0.7816531E-02  0.9420840E-01
        2   -1    0    0  503    0  0.00000000000E+00  0.00000000000E+00  0.17347666490E+04  0.17347666490E+04  0.00000000000E+00 0.  1.
       -2   -1    0    0    0  501  0.00000000000E+00  0.00000000000E+00 -0.68799485818E+03  0.68799485818E+03  0.00000000000E+00 0. -1.
  1000006    1    1    2  502    0 -0.42817509135E+03 -0.68261861197E+03  0.86034162332E+03  0.12296299391E+04  0.35000000000E+03 0.  0.
 -1000006    1    1    2    0  501  0.40606828661E+03  0.74067705180E+03 -0.81632724051E+02  0.91796396993E+03  0.35000000000E+03 0.  0.
       21    1    1    2  503  502  0.22106804739E+02 -0.58058439831E+02  0.26806289159E+03  0.27516759820E+03  0.00000000000E+00 0.  1.
<scales pt_clust_1="13000.00000" pt_clust_2="13000.00000" pt_clust_3="62.12482"></scales>
<clustering>
<clus scale="   62.125">  1  5  2 -1</clus>
<clus scale=" 1906.414">  3  4 -1 -1</clus>
<clus scale="  903.803">  1  3  2 -1</clus>
</clustering>
</event>
<event>
 5   1  0.3464723E-02  0.7023148E+03  0.7816531E-02  0.9713282E-01
       21   -1    0    0  501  502  0.00000000000E+00  0.00000000000E+00  0.93377039936E+03  0.93377039936E+03  0.00000000000E+00 0.  1.
       21   -1    0    0  504  503  0.00000000000E+00  0.00000000000E+00 -0.11480089890E+04  0.11480089890E+04  0.00000000000E+00 0. -1.
  1000006    1    1    2  501    0 -0.25501690862E+03 -0.58596134162E+03  0.42326959588E+03  0.84263958390E+03  0.35000000000E+03 0.  0.
 -1000006    1    1    2    0  503  0.27517548721E+03  0.53644881461E+03 -0.80407382337E+03  0.10642056159E+04  0.35000000000E+03 0.  0.
       21    1    1    2  504  502 -0.20158578598E+02  0.49512527007E+02  0.16656563785E+03  0.17493418858E+03  0.00000000000E+00 0. -1.
<scales pt_clust_1="13000.00000" pt_clust_2="13000.00000" pt_clust_3="53.45894"></scales>
<clustering>
<clus scale="   53.459">  1  5  2 -1</clus>
<clus scale="  702.315">  1  3  2 -1</clus>
<clus scale="  702.315">  1  3  2 -1</clus>
</clustering>
</event>
<event>
 4   0  0.3464723E-02  0.5393189E+03  0.7816531E-02  0.1003997E+00
        2   -1    0    0  502    0  0.00000000000E+00  0.00000000000E+00  0.17741541966E+04  0.17741541966E+04  0.00000000000E+00 0. -1.
       -2   -1    0    0    0  501  0.00000000000E+00  0.00000000000E+00 -0.16397360537E+03  0.16397360537E+03  0.00000000000E+00 0.  1.
  1000006    1    1    2  502    0  0.40871032984E+03  0.36341761774E+02  0.79243645091E+03  0.95855119117E+03  0.35000000000E+03 0.  0.
 -1000006    1    1    2    0  501 -0.40871032984E+03 -0.36341761774E+02  0.81774414030E+03  0.97957661076E+03  0.35000000000E+03 0.  0.
<scales pt_clust_1="13000.00000" pt_clust_2="13000.00000"></scales>
<clustering>
<clus scale="  892.277">  3  4 -1 -1</clus>
<clus scale="  539.319">  1  3  2 -1</clus>
</clustering>
</event>
<event>
 5   1  0.3464723E-02  0.3640020E+03  0.7816531E-02  0.1057010E+00
        2   -1    0    0  501    0  0.00000000000E+00  0.00000000000E+00  0.92905724547E+03  0.92905724547E+03  0.00000000000E+00 0.  1.
       21   -1    0    0  502  503  0.00000000000E+00  0.00000000000E+00 -0.28937142181E+03  0.28937142181E+03  0.00000000000E+00 0.  1.
  1000006    1    1    2  501    0  0.83699686711E+02 -0.16975731783E+03  0.17562634675E+03  0.43493424582E+03  0.35000000000E+03 0.  0.
 -1000006    1    1    2    0  503  0.12205014204E+01  0.41147887847E+02  0.68548602041E+02  0.35901747749E+03  0.35000000000E+03 0.  0.
        2    1    1    2  502    0 -0.84920188132E+02  0.12860942998E+03  0.39551087486E+03  0.42447694398E+03  0.00000000000E+00 0.  1.
<scales pt_clust_1="13000.00000" pt_clust_2="13000.00000" pt_clust_3="154.11627"></scales>
<clustering>
<clus scale="  154.116">  1  5  2 -1</clus>
<clus scale="  364.002">  1  3  2 -1</clus>
<clus scale="  364.002">  2  3  1 -1</clus>
</clustering>
</event>
<event>
 4   0  0.3464723E-02  0.3998448E+03  0.7816531E-02  0.1043833E+00
       21   -1    0    0  501  502  0.00000000000E+00  0.00000000000E+00  0.33375131628E+03  0.33375131628E+03  0.00000000000E+00 0. -1.
       21   -1    0    0  502  503  0.00000000000E+00  0.00000000000E+00 -0.49450271592E+03  0.49450271592E+03  0.00000000000E+00 0. -1.
  1000006    1    1    2  501    0 -0.18922883451E+03 -0.39601593928E+02 -0.71140227698E+01  0.39990804865E+03  0.35000000000E+03 0.  0.
 -1000006    1    1    2    0  503  0.18922883451E+03  0.39601593928E+02 -0.15363737687E+03  0.42834598355E+03  0.35000000000E+03 0.  0.
<scales pt_clust_1="13000.00000" pt_clust_2="13000.00000"></scales>
<clustering>
<clus scale="  399.845">  1  3  2 -1</clus>
<clus scale="  399.845">  1  3  2 -1</clus>
</clustering>
</event>
<event>
 5   1  0.3464723E-02  0.3714595E+03  0.7816531E-02  0.1054136E+00
       21   -1    0    0  504  502  0.00000000000E+00  0.00000000000E+00  0.10378760629E+04  0.10378760629E+04  0.00000000000E+00 0. -1.
       21   -1    0    0  501  503  0.00000000000E+00  0.00000000000E+00 -0.36181599320E+03  0.36181599320E+03  0.00000000000E+00 0. -1.
  1000006    1    1    2  501    0  0.14155137841E+03 -0.69634802332E+02  0.21360605454E+03  0.43933284075E+03  0.35000000000E+03 0.  0.
 -1000006    1    1    2    0  502  0.10422769220E+03  0.15350570921E+03  0.55741952477E+03  0.68384496867E+03  0.35000000000E+03 0.  0.
       21    1    1    2  504  503 -0.24577907061E+03 -0.83870906875E+02 -0.94965509645E+02  0.27651424664E+03  0.00000000000E+00 0. -1.
<scales pt_clust_1="13000.00000" pt_clust_2="13000.00000" pt_clust_3="259.69536"></scales>
<clustering>
<clus scale="  259.695">  2  5  1 -1</clus>
<clus scale="  371.459">  1  4  2 -1</clus>
<clus scale="  371.459">  1  3  2 -1</clus>
</clustering>
</event>
<event>
 4   0  0.3464723E-02  0.4635587E+03  0.7816531E-02  0.1023754E+00
        1   -1    0    0  502    0  0.00000000000E+00  0.00000000000E+00  0.82381482692E+03  0.82381482692E+03  0.00000000000E+00 0.  1.
       -1   -1    0    0    0  501  0.00000000000E+00  0.00000000000E+00 -0.30267913275E+03  0.30267913275E+03  0.00000000000E+00 0. -1.
  1000006    1    1    2  502    0  0.14716197484E+03 -0.26595114472E+03  0.46997009291E+03  0.66012010002E+03  0.35000000000E+03 0.  0.
 -1000006    1    1    2    0  501 -0.14716197484E+03  0.26595114472E+03  0.51165601265E+02  0.46637385965E+03  0.35000000000E+03 0.  0.
<scales pt_clust_1="13000.00000" pt_clust_2="13000.00000"></scales>
<clustering>
<clus scale="  793.666">  3  4 -1 -1</clus>
<clus scale="  463.559">  1  3  2 -1</clus>
</clustering>
</event>
<event>
 4   0  0.3464723E-02  0.4103542E+03  0.7816531E-02  0.1040252E+00
       21   -1    0    0  503  502  0.00000000000E+00  0.00000000000E+00  0.28437996482E+03  0.28437996482E+03  0.00000000000E+00 0.  1.
       21   -1    0    0  501  503  0.00000000000E+00  0.00000000000E+00 -0.62911705008E+03  0.62911705008E+03  0.00000000000E+00 0.  1.
  1000006    1    1    2  501    0  0.20867312920E+03  0.48436793049E+02 -0.28311300727E+03  0.49854144528E+03  0.35000000000E+03 0.  0.
 -1000006    1    1    2    0  502 -0.20867312920E+03 -0.48436793049E+02 -0.61624077984E+02  0.41495556962E+03  0.35000000000E+03 0.  0.
<scales pt_clust_1="13000.00000" pt_clust_2="13000.00000"></scales>
<clustering>
<clus scale="  410.354">  2  3  1 -1</clus>
<clus scale="  410.354">  1  3  2 -1</clus>
</clustering>
</event>
<event>
 4   0  0.3464723E-02  0.4594483E+03  0.7816531E-02  0.1024941E+00
       21   -1    0    0  501  502  0.00000000000E+00  0.00000000000E+00  0.50175400392E+03  0.50175400392E+03  0.00000000000E+00 0. -1.
       21   -1    0    0  502  503  0.00000000000E+00  0.00000000000E+00 -0.55937759087E+03  0.55937759087E+03  0.00000000000E+00 0. -1.
  1000006    1    1    2  501    0 -0.29466879372E+03  0.41988875266E+02  0.23535286395E+03  0.51622062552E+03  0.35000000000E+03 0.  0.
 -1000006    1    1    2    0  503  0.29466879372E+03 -0.41988875266E+02 -0.29297645091E+03  0.54491096927E+03  0.35000000000E+03 0.  0.
<scales pt_clust_1="13000.00000" pt_clust_2="13000.00000"></scales>
<clustering>
<clus scale="  459.448">  1  3  2 -1</clus>
<clus scale="  459.448">  1  3  2 -1</clus>
</clustering>
</event>
<event>
 6   2  0.3464723E-02  0.4791284E+03  0.7816531E-02  0.1019375E+00
       21   -1    0    0  505  502  0.00000000000E+00  0.00000000000E+00  0.98711420667E+03  0.98711420667E+03  0.00000000000E+00 0.  1.
       21   -1    0    0  501  503  0.00000000000E+00  0.00000000000E+00 -0.86731325771E+03  0.86731325771E+03  0.00000000000E+00 0. -1.
  1000006    1    1    2  501    0 -0.28150735586E+03 -0.19337447901E+03 -0.50309023089E+03  0.70159807650E+03  0.35000000000E+03 0.  0.
 -1000006    1    1    2    0  504  0.45372422363E+02  0.34717660549E+03  0.41800883629E+03  0.64793644698E+03  0.35000000000E+03 0.  0.
       21    1    1    2  504  502 -0.11712972499E+02  0.31103638727E+02  0.19257852277E+03  0.19542547812E+03  0.00000000000E+00 0. -1.
       21    1    1    2  505  503  0.24784790600E+03 -0.18490576521E+03  0.12303820781E+02  0.30946746278E+03  0.00000000000E+00 0. -1.
<scales pt_clust_1="13000.00000" pt_clust_2="13000.00000" pt_clust_3="33.23598" pt_clust_4="303.56726"></scales>
<clustering>
<clus scale="   33.236">  1  5  2 -1</clus>
<clus scale="  303.567">  1  6  2 -1</clus>
<clus scale="  479.128">  1  4  2 -1</clus>
<clus scale="  479.128">  1  3  2 -1</clus>
</clustering>
</event>
<event>
 5   1  0.3464723E-02  0.6155971E+03  0.7816531E-02  0.9873565E-01
       21   -1    0    0  502  503  0.00000000000E+00  0.00000000000E+00  0.66776557510E+03  0.66776557510E+03  0.00000000000E+00 0. -1.
        2   -1    0    0  501    0  0.00000000000E+00  0.00000000000E+00 -0.69612389508E+03  0.69612389508E+03  0.00000000000E+00 0.  1.
  1000006    1    1    2  501    0  0.21760570708E+02 -0.48486737187E+03  0.44996322666E+02  0.60007879466E+03  0.35000000000E+03 0.  0.
 -1000006    1    1    2    0  503  0.92420543741E+02  0.52179813350E+03 -0.94167150062E+02  0.64201425310E+03  0.35000000000E+03 0.  0.
        2    1    1    2  502    0 -0.11418111445E+03 -0.36930761631E+02  0.20812507415E+02  0.12179642243E+03  0.00000000000E+00 0.  1.
<scales pt_clust_1="13000.00000" pt_clust_2="13000.00000" pt_clust_3="120.00503"></scales>
<clustering>
<clus scale="  120.005">  1  5  2 -1</clus>
<clus scale=" 1076.325">  3  4 -1 -1</clus>
<clus scale="  615.597">  1  3  2 -1</clus>
</clustering>
</event>
<event>
 4   0  0.3464723E-02  0.3912272E+03  0.7816531E-02  0.1046860E+00
       21   -1    0    0  501  502  0.00000000000E+00  0.00000000000E+00  0.32391832755E+03  0.32391832755E+03  0.00000000000E+00 0. -1.
       21   -1    0    0  502  503  0.00000000000E+00  0.00000000000E+00 -0.52232698095E+03  0.52232698095E+03  0.00000000000E+00 0. -1.
  1000006    1    1    2  501    0 -0.13601261769E+03  0.10981479727E+03  0.31451546062E+02  0.39248939046E+03  0.35000000000E+03 0.  0.
 -1000006    1    1    2    0  503  0.13601261769E+03 -0.10981479727E+03 -0.22986019946E+03  0.45375591805E+03  0.35000000000E+03 0.  0.
<scales pt_clust_1="13000.00000" pt_clust_2="13000.00000"></scales>
<clustering>
<clus scale="  391.227">  1  3  2 -1</clus>
<clus scale="  391.227">  1  3  2 -1</clus>
</clustering>
</event>
<event>
 5   1  0.3464723E-02  0.7109964E+03  0.7816531E-02  0.9698610E-01
       21   -1    0    0  501  503  0.00000000000E+00  0.00000000000E+00  0.25705472793E+03  0.25705472793E+03  0.00000000000E+00 0. -1.
        2   -1    0    0  503    0  0.00000000000E+00  0.00000000000E+00 -0.24478009082E+04  0.24478009082E+04  0.00000000000E+00 0.  1.
  1000006    1    1    2  501    0 -0.15996456535E+03 -0.58732195743E+03 -0.69238494945E+03  0.98612000388E+03  0.35000000000E+03 0.  0.
 -1000006    1    1    2    0  502  0.12433376065E+03  0.62207871429E+03 -0.10993309867E+04  0.13166128623E+04  0.35000000000E+03 0.  0.
        2    1    1    2  502    0  0.35630804693E+02 -0.34756756869E+02 -0.39903024408E+03  0.40212276992E+03  0.00000000000E+00 0.  1.
<scales pt_clust_1="13000.00000" pt_clust_2="13000.00000" pt_clust_3="49.77536"></scales>
<clustering>
<clus scale="   49.775">  2  5  1 -1</clus>
<clus scale="  710.996">  1  3  2 -1</clus>
<clus scale="  710.996">  1  3  2 -1</clus>
</clustering>
</event>
<event>
 6   2  0.3464723E-02  0.4992798E+03  0.7816531E-02  0.1020454E+00
       21   -1    0    0  505  502  0.00000000000E+00  0.00000000000E+00  0.11307747999E+04  0.11307747999E+04  0.00000000000E+00 0. -1.
       21   -1    0    0  501  503  0.00000000000E+00  0.00000000000E+00 -0.53963855816E+03  0.53963855816E+03  0.00000000000E+00 0. -1.
  1000006    1    1    2  501    0 -0.57715696433E+02 -0.25166439049E+03 -0.11746914223E+02  0.43509086068E+03  0.35000000000E+03 0.  0.
 -1000006    1    1    2    0  502  0.46874856666E+02 -0.20796792766E+03  0.64241284920E+03  0.76199880574E+03  0.35000000000E+03 0.  0.
       21    1    1    2  504  503 -0.20803186341E+02  0.39882209945E+03 -0.54760463933E+02  0.40310116346E+03  0.00000000000E+00 0. -1.
       21    1    1    2  505  504  0.31644026107E+02  0.60810218697E+02  0.15230770682E+02  0.70222528164E+02  0.00000000000E+00 0. -1.
<scales pt_clust_1="13000.00000" pt_clust_2="13000.00000" pt_clust_3="371.31336" pt_clust_4="43.63680"></scales>
<clustering>
<clus scale="   43.637">  5  6 -1 -1</clus>
<clus scale="  409.814">  1  4  2 -1</clus>
<clus scale="  371.313">  1  5  2 -1</clus>
<clus scale="  499.280">  1  3  2 -1</clus>
</clustering>
</event>
<event>
 5   1  0.3464723E-02  0.3593697E+03  0.7816531E-02  0.1058834E+00
       21   -1    0    0  504  502  0.00000000000E+00  0.00000000000E+00  0.32090073303E+04  0.32090073303E+04  0.00000000000E+00 0.  1.
       21   -1    0    0  502  503  0.00000000000E+00  0.00000000000E+00 -0.47081057666E+02  0.47081057666E+02  0.00000000000E+00 0.  1.
  1000006    1    1    2  501    0 -0.83776828991E+02 -0.26178786535E+01  0.16500073241E+04  0.16888012257E+04  0.35000000000E+03 0.  0.
 -1000006    1    1    2    0  503  0.74413806936E+02 -0.40917404620E+02  0.12220073182E+04  0.12739754843E+04  0.35000000000E+03 0.  0.
       21    1    1    2  504  501  0.93630220553E+01  0.43535283274E+02  0.28991163036E+03  0.29331167806E+03  0.00000000000E+00 0.  1.
<scales pt_clust_1="13000.00000" pt_clust_2="13000.00000" pt_clust_3="44.53074"></scales>
<clustering>
<clus scale="   44.531">  1  5  2 -1</clus>
<clus scale="  359.370">  1  3  2 -1</clus>
<clus scale="  359.370">  1  3  2 -1</clus>
</clustering>
</event>
<event>
 4   0  0.3464723E-02  0.3808594E+03  0.7816531E-02  0.1050617E+00
       21   -1    0    0  501  502  0.00000000000E+00  0.00000000000E+00  0.88931492892E+02  0.88931492892E+02  0.00000000000E+00 0.  1.
       21   -1    0    0  502  503  0.00000000000E+00  0.00000000000E+00 -0.21342286451E+04  0.21342286451E+04  0.00000000000E+00 0.  1.
  1000006    1    1    2  501    0 -0.74912830439E+02 -0.13016111858E+03 -0.48292547516E+03  0.61503728628E+03  0.35000000000E+03 0.  0.
 -1000006    1    1    2    0  503  0.74912830439E+02  0.13016111858E+03 -0.15623716770E+04  0.16081228517E+04  0.35000000000E+03 0.  0.
<scales pt_clust_1="13000.00000" pt_clust_2="13000.00000"></scales>
<clustering>
<clus scale="  380.859">  1  3  2 -1</clus>
<clus scale="  380.859">  1  3  2 -1</clus>
</clustering>
</event>
<event>
 5   1  0.3464723E-02  0.3916518E+03  0.7816531E-02  0.1046709E+00
       21   -1    0    0  504  502  0.00000000000E+00  0.00000000000E+00  0.11574604369E+04  0.11574604369E+04  0.00000000000E+00 0.  1.
       21   -1    0    0  501  503  0.00000000000E+00  0.00000000000E+00 -0.57984595147E+03  0.57984595147E+03  0.00000000000E+00 0.  1.
  1000006    1    1    2  501    0 -0.10666561573E+03 -0.12757364761E+03  0.45788283575E+03  0.59984104596E+03  0.35000000000E+03 0.  0.
 -1000006    1    1    2    0  502  0.66891860423E+01  0.20367172449E+03  0.55350997655E+03  0.68585728158E+03  0.35000000000E+03 0.  0.
       21    1    1    2  504  503  0.99976429683E+02 -0.76098076878E+02 -0.43377832684E+03  0.45160806085E+03  0.00000000000E+00 0.  1.
<scales pt_clust_1="13000.00000" pt_clust_2="13000.00000" pt_clust_3="125.64316"></scales>
<clustering>
<clus scale="  125.643">  2  5  1 -1</clus>
<clus scale="  391.652">  2  3  1 -1</clus>
<clus scale="  391.652">  1  3  2 -1</clus>
</clustering>
</event>
<event>
 6   2  0.3464723E-02  0.4358608E+03  0.7816531E-02  0.1032024E+00
       21   -1    0    0  501  502  0.00000000000E+00  0.00000000000E+00  0.85053089339E+03  0.85053089339E+03  0.00000000000E+00 0.  1.
       21   -1    0    0  504  503  0.00000000000E+00  0.00000000000E+00 -0.38128413217E+03  0.38128413217E+03  0.00000000000E+00 0. -1.
  1000006    1    1    2  501    0  0.19540492023E+03  0.14325487133E+03  0.10348151576E+03  0.43807929090E+03  0.35000000000E+03 0.  0.
 -1000006    1    1    2    0  503 -0.17265486706E+03 -0.22234988533E+03  0.67631380766E+02  0.45422811261E+03  0.35000000000E+03 0.  0.
       21    1    1    2  504  505 -0.14651511057E+02  0.11586288354E+03  0.17220179218E+03  0.20806809412E+03  0.00000000000E+00 0.  1.
       21    1    1    2  505  502 -0.80985421128E+01 -0.36767869541E+02  0.12593207252E+03  0.13143952793E+03  0.00000000000E+00 0.  1.
<scales pt_clust_1="13000.00000" pt_clust_2="13000.00000" pt_clust_3="107.49666" pt_clust_4="37.64920"></scales>
<clustering>
<clus scale="   37.649">  1  6  2 -1</clus>
<clus scale="  107.497">  1  5  2 -1</clus>
<clus scale="  435.861">  1  3  2 -1</clus>
<clus scale="  435.861">  1  3  2 -1</clus>
</clustering>
</event>
<event>
 5   1  0.3464723E-02  0.4342774E+03  0.7816531E-02  0.1032517E+00
        2   -1    0    0  501    0  0.00000000000E+00  0.00000000000E+00  0.15790800151E+04  0.15790800151E+04  0.00000000000E+00 0. -1.
       21   -1    0    0  502  503  0.00000000000E+00  0.00000000000E+00 -0.16501514760E+03  0.16501514760E+03  0.00000000000E+00 0.  1.
  1000006    1    1    2  501    0 -0.30905732361E+02  0.27070256994E+03  0.10209406111E+04  0.11131283740E+04  0.35000000000E+03 0.  0.
 -1000006    1    1    2    0  503 -0.37932145913E+00 -0.22835956538E+03  0.39924412927E+03  0.57796549183E+03  0.35000000000E+03 0.  0.
        2    1    1    2  502    0  0.31285053821E+02 -0.42343004557E+02 -0.61198728385E+01  0.53001296880E+02  0.00000000000E+00 0. -1.
<scales pt_clust_1="13000.00000" pt_clust_2="13000.00000" pt_clust_3="52.64679"></scales>
<clustering>
<clus scale="   52.647">  2  5  1 -1</clus>
<clus scale="  687.461">  3  4 -1 -1</clus>
<clus scale="  434.277">  2  3  1 -1</clus>
</clustering>
</event>
<event>
 4   0  0.3464723E-02  0.4164315E+03  0.7816531E-02  0.1038234E+00
       21   -1    0    0  503  502  0.00000000000E+00  0.00000000000E+00  0.90324284504E+03  0.90324284504E+03  0.00000000000E+00 0. -1.
       21   -1    0    0  501  503  0.00000000000E+00  0.00000000000E+00 -0.41483310331E+03  0.41483310331E+03  0.00000000000E+00 0. -1.
  1000006    1    1    2  501    0  0.15898701694E+03 -0.16011972708E+03 -0.23882234845E+03  0.48005344773E+03  0.35000000000E+03 0.  0.
 -1000006    1    1    2    0  502 -0.15898701694E+03  0.16011972708E+03  0.72723209018E+03  0.83802250062E+03  0.35000000000E+03 0.  0.
<scales pt_clust_1="13000.00000" pt_clust_2="13000.00000"></scales>
<clustering>
<clus scale="  416.432">  2  3  1 -1</clus>
<clus scale="  416.432">  1  3  2 -1</clus>
</clustering>
</event>
<event>
 4   0  0.3464723E-02  0.4070525E+03  0.7816531E-02  0.1041365E+00
       21   -1    0    0  501  502  0.00000000000E+00  0.00000000000E+00  0.24721249369E+03  0.24721249369E+03  0.00000000000E+00 0. -1.
       21   -1    0    0  502  503  0.00000000000E+00  0.00000000000E+00 -0.71079649317E+03  0.71079649317E+03  0.00000000000E+00 0. -1.
  1000006    1    1    2  501    0  0.10522769331E+03 -0.17921749214E+03 -0.11737369226E+03  0.42363706231E+03  0.35000000000E+03 0.  0.
 -1000006    1    1    2    0  503 -0.10522769331E+03  0.17921749214E+03 -0.34621030722E+03  0.53437192455E+03  0.35000000000E+03 0.  0.
<scales pt_clust_1="13000.00000" pt_clust_2="13000.00000"></scales>
<clustering>
<clus scale="  407.053">  1  3  2 -1</clus>
<clus scale="  407.053">  1  3  2 -1</clus>
</clustering>
</event>
<event>
 6   2  0.3464723E-02  0.6997205E+03  0.7816531E-02  0.9717710E-01
        1   -1    0    0  503    0  0.00000000000E+00  0.00000000000E+00  0.15223249477E+04  0.15223249477E+04  0.00000000000E+00 0.  1.
       21   -1    0    0  504  503  0.00000000000E+00  0.00000000000E+00 -0.27611342966E+04  0.27611342966E+04  0.00000000000E+00 0. -1.
  1000006    1    1    2  501    0  0.42437086816E+03  0.56042173635E+03 -0.12094854828E+04  0.14420534974E+04  0.35000000000E+03 0.  0.
 -1000006    1    1    2    0  502 -0.24256587983E+03 -0.49605553172E+03 -0.59201978175E+03  0.88198453421E+03  0.35000000000E+03 0.  0.
       21    1    1    2  504  501 -0.14503455249E+03 -0.75280741479E+02 -0.68850587446E+03  0.70763164897E+03  0.00000000000E+00 0. -1.
        1    1    1    2  502    0 -0.36770435853E+02  0.10914536849E+02  0.12512017901E+04  0.12517895636E+04  0.00000000000E+00 0.  1.
<scales pt_clust_1="13000.00000" pt_clust_2="13000.00000" pt_clust_3="164.38562" pt_clust_4="38.35612"></scales>
<clustering>
<clus scale="   38.356">  1  6  2 -1</clus>
<clus scale="  164.386">  2  5  1 -1</clus>
<clus scale="  699.720">  1  4  2 -1</clus>
<clus scale="  699.720">  2  3  1 -1</clus>
</clustering>
</event>
<event>
 4   0  0.3464723E-02  0.4017778E+03  0.7816531E-02  0.1043166E+00
       21   -1    0    0  503  502  0.00000000000E+00  0.00000000000E+00  0.46636521450E+03  0.46636521450E+03  0.00000000000E+00 0.  1.
       21   -1    0    0  501  503  0.00000000000E+00  0.00000000000E+00 -0.38832072607E+03  0.38832072607E+03  0.00000000000E+00 0.  1.
  1000006    1    1    2  501    0  0.17885095773E+02  0.19648287998E+03 -0.10182981879E+03  0.41448125503E+03  0.35000000000E+03 0.  0.
 -1000006    1    1    2    0  502 -0.17885095773E+02 -0.19648287998E+03  0.17987430722E+03  0.44020468554E+03  0.35000000000E+03 0.  0.
<scales pt_clust_1="13000.00000" pt_clust_2="13000.00000"></scales>
<clustering>
<clus scale="  401.778">  2  3  1 -1</clus>
<clus scale="  401.778">  1  3  2 -1</clus>
</clustering>
</event>
<event>
 4   0  0.3464723E-02  0.4546108E+03  0.7816531E-02  0.1026356E+00
        2   -1    0    0  502    0  0.00000000000E+00  0.00000000000E+00  0.11389145024E+04  0.11389145024E+04  0.00000000000E+00 0. -1.
       -2   -1    0    0    0  501  0.00000000000E+00  0.00000000000E+00 -0.18172162073E+03  0.18172162073E+03  0.00000000000E+00 0.  1.
  1000006    1    1    2  502    0  0.28997707762E+03 -0.91777523955E+01  0.50350290004E+03  0.67837018437E+03  0.35000000000E+03 0.  0.
 -1000006    1    1    2    0  501 -0.28997707762E+03  0.91777523955E+01  0.45368998166E+03  0.64226593880E+03  0.35000000000E+03 0.  0.
<scales pt_clust_1="13000.00000" pt_clust_2="13000.00000"></scales>
<clustering>
<clus scale="  678.499">  3  4 -1 -1</clus>
<clus scale="  454.611">  1  3  2 -1</clus>
</clustering>
</event>
<event>
 5   1  0.3464723E-02  0.3629669E+03  0.7816531E-02  0.1057415E+00
       21   -1    0    0  504  502  0.00000000000E+00  0.00000000000E+00  0.38414151169E+03  0.38414151169E+03  0.00000000000E+00 0.  1.
       21   -1    0    0  501  503  0.00000000000E+00  0.00000000000E+00 -0.73089039364E+03  0.73089039364E+03  0.00000000000E+00 0.  1.
  1000006    1    1    2  501    0  0.13927672549E+02 -0.99615832407E+02 -0.55638118260E+03  0.66496414526E+03  0.35000000000E+03 0.  0.
 -1000006    1    1    2    0  502 -0.28919627154E+02  0.69683703776E+02  0.16487943733E+03  0.39417939097E+03  0.35000000000E+03 0.  0.
       21    1    1    2  504  503  0.14991954605E+02  0.29932128631E+02  0.44752863309E+02  0.55888369108E+02  0.00000000000E+00 0.  1.
<scales pt_clust_1="13000.00000" pt_clust_2="13000.00000" pt_clust_3="33.47672"></scales>
<clustering>
<clus scale="   33.477">  1  5  2 -1</clus>
<clus scale="  362.967">  1  4  2 -1</clus>
<clus scale="  362.967">  1  3  2 -1</clus>
</clustering>
</event>
<event>
 6   2  0.3464723E-02  0.6188414E+03  0.7816531E-02  0.9867069E-01
       21   -1    0    0  501  502  0.00000000000E+00  0.00000000000E+00  0.64244084529E+03  0.64244084529E+03  0.00000000000E+00 0. -1.
       21   -1    0    0  504  503  0.00000000000E+00  0.00000000000E+00 -0.86555842350E+03  0.86555842350E+03  0.00000000000E+00 0.  1.
  1000006    1    1    2  501    0 -0.57462756338E+03 -0.63969985345E+01 -0.18640185300E+03  0.69820012102E+03  0.35000000000E+03 0.  0.
 -1000006    1    1    2    0  503  0.44873535648E+03 -0.71274675748E+02 -0.11899940287E+03  0.58575110537E+03  0.35000000000E+03 0.  0.
       21    1    1    2  504  505  0.11730008556E+02  0.44558663243E+02 -0.34384226603E+02  0.57492109109E+02  0.00000000000E+00 0. -1.
       21    1    1    2  505  502  0.11416219834E+03  0.33113011040E+02  0.11666790426E+03  0.16655593329E+03  0.00000000000E+00 0.  1.
<scales pt_clust_1="13000.00000" pt_clust_2="13000.00000" pt_clust_3="46.07676" pt_clust_4="119.59416"></scales>
<clustering>
<clus scale="   46.077">  2  5  1 -1</clus>
<clus scale="  119.594">  1  6  2 -1</clus>
<clus scale="  618.841">  1  3  2 -1</clus>
<clus scale="  618.841">  1  3  2 -1</clus>
</clustering>
</event>
<event>
 6   2  0.3464723E-02  0.6639703E+03  0.7816531E-02  0.9780912E-01
       21   -1    0    0  501  502  0.00000000000E+00  0.00000000000E+00  0.49233830712E+03  0.49233830712E+03  0.00000000000E+00 0. -1.
       21   -1    0    0  504  503  0.00000000000E+00  0.00000000000E+00 -0.14506068839E+04  0.14506068839E+04  0.00000000000E+00 0.  1.
  1000006    1    1    2  501    0  0.48472873874E+03 -0.22377154174E+03  0.27453827337E+02  0.63897524654E+03  0.35000000000E+03 0.  0.
 -1000006    1    1    2    0  503 -0.47205292805E+03  0.29551667419E+03 -0.83227493548E+03  0.10608230954E+04  0.35000000000E+03 0.  0.
       21    1    1    2  504  505 -0.28726376924E+02  0.11877320892E+02 -0.15489730805E+03  0.15798560543E+03  0.00000000000E+00 0.  1.
       21    1    1    2  505  502  0.16050566232E+02 -0.83622453343E+02  0.14498393893E+01  0.85161243613E+02  0.00000000000E+00 0. -1.
<scales pt_clust_1="13000.00000" pt_clust_2="13000.00000" pt_clust_3="31.08497" pt_clust_4="84.60069"></scales>
<clustering>
<clus scale="   31.085">  2  5  1 -1</clus>
<clus scale="   84.601">  1  6  2 -1</clus>
<clus scale="  663.970">  2  4  1 -1</clus>
<clus scale="  663.970">  1  3  2 -1</clus>
</clustering>
</event>
<event>
 5   1  0.3464723E-02  0.3620084E+03  0.7816531E-02  0.1057791E+00
       21   -1    0    0  503  502  0.00000000000E+00  0.00000000000E+00  0.19782788406E+03  0.19782788406E+03  0.00000000000E+00 0. -1.
       21   -1    0    0  504  503  0.00000000000E+00  0.00000000000E+00 -0.95393400176E+03  0.95393400176E+03  0.00000000000E+00 0. -1.
  1000006    1    1    2  501    0 -0.13690398971E+02  0.77487780382E+02 -0.46588262908E+03  0.58799524421E+03  0.35000000000E+03 0.  0.
 -1000006    1    1    2    0  502 -0.91043603894E+01 -0.99391197584E+02 -0.10916873637E+03  0.37997277868E+03  0.35000000000E+03 0.  0.
       21    1    1    2  504  501  0.22794759361E+02  0.21903417202E+02 -0.18105475226E+03  0.18379386294E+03  0.00000000000E+00 0. -1.
<scales pt_clust_1="13000.00000" pt_clust_2="13000.00000" pt_clust_3="31.61267"></scales>
<clustering>
<clus scale="   31.613">  2  5  1 -1</clus>
<clus scale="  362.008">  1  4  2 -1</clus>
<clus scale="  362.008">  1  3  2 -1</clus>
</clustering>
</event>
<event>
 4   0  0.3464723E-02  0.3524384E+03  0.7816531E-02  0.1061619E+00
       21   -1    0    0  501  502  0.00000000000E+00  0.00000000000E+00  0.65971758807E+03  0.65971758807E+03  0.00000000000E+00 0. -1.
       21   -1    0    0  502  503  0.00000000000E+00  0.00000000000E+00 -0.18859081126E+03  0.18859081126E+03  0.00000000000E+00 0. -1.
  1000006    1    1    2  501    0  0.29919670976E+02  0.28594466295E+02  0.25273197035E+03  0.43368915026E+03  0.35000000000E+03 0.  0.
 -1000006    1    1    2    0  503 -0.29919670976E+02 -0.28594466295E+02  0.21839480646E+03  0.41461924908E+03  0.35000000000E+03 0.  0.
<scales pt_clust_1="13000.00000" pt_clust_2="13000.00000"></scales>
<clustering>
<clus scale="  352.438">  1  3  2 -1</clus>
<clus scale="  352.438">  1  3  2 -1</clus>
</clustering>
</event>
<event>
 5   1  0.3464723E-02  0.4000073E+03  0.7816531E-02  0.1043777E+00
       21   -1    0    0  501  502  0.00000000000E+00  0.00000000000E+00  0.59649397801E+02  0.59649397801E+02  0.00000000000E+00 0.  1.
       21   -1    0    0  504  503  0.00000000000E+00  0.00000000000E+00 -0.36462327529E+04  0.36462327529E+04  0.00000000000E+00 0.  1.
  1000006    1    1    2  501    0 -0.78593037670E+01 -0.17818674682E+03 -0.93915387241E+03  0.10179991559E+04  0.35000000000E+03 0.  0.
 -1000006    1    1    2    0  503  0.48954300757E+02  0.19488467779E+03 -0.25366280221E+04  0.25685323210E+04  0.35000000000E+03 0.  0.
       21    1    1    2  504  502 -0.41094996990E+02 -0.16697930961E+02 -0.11080146051E+03  0.11935067376E+03  0.00000000000E+00 0. -1.
<scales pt_clust_1="13000.00000" pt_clust_2="13000.00000" pt_clust_3="44.35786"></scales>
<clustering>
<clus scale="   44.358">  1  5  2 -1</clus>
<clus scale="  400.007">  1  3  2 -1</clus>
<clus scale="  400.007">  1  3  2 -1</clus>
</clustering>
</event>
<event>
 6   2  0.3464723E-02  0.4283889E+03  0.7816531E-02  0.1034370E+00
       21   -1    0    0  501  502  0.00000000000E+00  0.00000000000E+00  0.98844144659E+03  0.98844144659E+03  0.00000000000E+00 0.  1.
       21   -1    0    0  505  503  0.00000000000E+00  0.00000000000E+00 -0.72168264448E+03  0.72168264448E+03  0.00000000000E+00 0.  1.
  1000006    1    1    2  501    0  0.18102665542E+03  0.80493419895E+02  0.15260496439E+03  0.43016056976E+03  0.35000000000E+03 0.  0.
 -1000006    1    1    2    0  504 -0.32364140351E+03 -0.67920553767E+01 -0.10778607451E+02  0.47687112354E+03  0.35000000000E+03 0.  0.
       21    1    1    2  504  503  0.10415262583E+03 -0.51079353029E+02 -0.32802991656E+03  0.34793748854E+03  0.00000000000E+00 0.  1.
       21    1    1    2  505  502  0.38462122260E+02 -0.22622011489E+02  0.45296236174E+03  0.45515490924E+03  0.00000000000E+00 0.  1.
<scales pt_clust_1="13000.00000" pt_clust_2="13000.00000" pt_clust_3="116.83254" pt_clust_4="44.62163"></scales>
<clustering>
<clus scale="   44.622">  1  6  2 -1</clus>
<clus scale="  116.833">  2  5  1 -1</clus>
<clus scale="  428.389">  2  4  1 -1</clus>
<clus scale="  428.389">  1  3  2 -1</clus>
</clustering>
</event>
<event>
 6   2  0.3464723E-02  0.4936404E+03  0.7816531E-02  0.1015452E+00
        2   -1    0    0  503    0  0.00000000000E+00  0.00000000000E+00  0.33682640517E+04  0.33682640517E+04  0.00000000000E+00 0. -1.
       21   -1    0    0  501  503  0.00000000000E+00  0.00000000000E+00 -0.13376752762E+03  0.13376752762E+03  0.00000000000E+00 0.  1.
  1000006    1    1    2  501    0  0.94845271055E+00  0.33867364252E+03  0.60058561520E+03  0.77324240500E+03  0.35000000000E+03 0.  0.
 -1000006    1    1    2    0  504 -0.18161327872E+02 -0.36731152127E+03  0.13658612818E+04  0.14571632128E+04  0.35000000000E+03 0.  0.
       21    1    1    2  504  502  0.48873037731E+02  0.27109153132E+01  0.47351147943E+03  0.47603470885E+03  0.00000000000E+00 0. -1.
        2    1    1    2  502    0 -0.31660162569E+02  0.25926963439E+02  0.79453814769E+03  0.79559125276E+03  0.00000000000E+00 0. -1.
<scales pt_clust_1="13000.00000" pt_clust_2="13000.00000" pt_clust_3="43.67930" pt_clust_4="40.92155"></scales>
<clustering>
<clus scale="   40.922">  1  6  2 -1</clus>
<clus scale="   43.679">  1  5  2 -1</clus>
<clus scale="  493.640">  2  3  1 -1</clus>
<clus scale="  493.640">  2  3  1 -1</clus>
</clustering>
</event>
<event>
 6   2  0.3464723E-02  0.3517636E+03  0.7816531E-02  0.1061894E+00
       21   -1    0    0  504  502  0.00000000000E+00  0.00000000000E+00  0.35919736728E+03  0.35919736728E+03  0.00000000000E+00 0. -1.
       21   -1    0    0  501  503  0.00000000000E+00  0.00000000000E+00 -0.93836040363E+03  0.93836040363E+03  0.00000000000E+00 0. -1.
  1000006    1    1    2  501    0 -0.25518839497E+02  0.52626890850E+00 -0.69019657639E+03  0.77428857811E+03  0.35000000000E+03 0.  0.
 -1000006    1    1    2    0  505  0.54736383964E+02 -0.32612830512E+01  0.50976239256E+02  0.35791798595E+03  0.35000000000E+03 0.  0.
       21    1    1    2  504  503  0.63166425215E+01 -0.37186940113E+02 -0.38083325257E+02  0.53601381981E+02  0.00000000000E+00 0.  1.
       21    1    1    2  505  502 -0.35534186989E+02  0.39921954256E+02  0.98140626048E+02  0.11174982487E+03  0.00000000000E+00 0.  1.
<scales pt_clust_1="13000.00000" pt_clust_2="13000.00000" pt_clust_3="37.71960" pt_clust_4="53.20211"></scales>
<clustering>
<clus scale="   37.720">  2  5  1 -1</clus>
<clus scale="   53.202">  1  6  2 -1</clus>
<clus scale="  351.764">  2  3  1 -1</clus>
<clus scale="  351.764">  1  3  2 -1</clus>
</clustering>
</event>
<event>
 4   0  0.3464723E-02  0.3825798E+03  0.7816531E-02  0.1049984E+00
       21   -1    0    0  501  502  0.00000000000E+00  0.00000000000E+00  0.15193520938E+04  0.15193520938E+04  0.00000000000E+00 0. -1.
       21   -1    0    0  502  503  0.00000000000E+00  0.00000000000E+00 -0.96795500376E+02  0.96795500376E+02  0.00000000000E+00 0. -1.
  1000006    1    1    2  501    0 -0.25951507312E+02 -0.15229508636E+03  0.76699511035E+03  0.85711654596E+03  0.35000000000E+03 0.  0.
 -1000006    1    1    2    0  503  0.25951507312E+02  0.15229508636E+03  0.65556148306E+03  0.75903104820E+03  0.35000000000E+03 0.  0.
<scales pt_clust_1="13000.00000" pt_clust_2="13000.00000"></scales>
<clustering>
<clus scale="  382.580">  1  3  2 -1</clus>
<clus scale="  382.580">  1  3  2 -1</clus>
</clustering>
</event>
<event>
 5   1  0.3464723E-02  0.3564817E+03  0.7816531E-02  0.1059986E+00
       21   -1    0    0  504  502  0.00000000000E+00  0.00000000000E+00  0.87330329378E+02  0.87330329378E+02  0.00000000000E+00 0. -1.
       21   -1    0    0  501  503  0.00000000000E+00  0.00000000000E+00 -0.22796949407E+04  0.22796949407E+04  0.00000000000E+00 0. -1.
  1000006    1    1    2  501    0  0.91827920578E+02  0.37410680620E+02 -0.95482514386E+03  0.10217744278E+04  0.35000000000E+03 0.  0.
 -1000006    1    1    2    0  502 -0.52466395146E+02  0.11292601245E+02 -0.54526125243E+03  0.65014619807E+03  0.35000000000E+03 0.  0.
       21    1    1    2  504  503 -0.39361525431E+02 -0.48703281864E+02 -0.69227821505E+03  0.69510464420E+03  0.00000000000E+00 0. -1.
<scales pt_clust_1="13000.00000" pt_clust_2="13000.00000" pt_clust_3="62.62060"></scales>
<clustering>
<clus scale="   62.621">  2  5  1 -1</clus>
<clus scale="  356.482">  2  3  1 -1</clus>
<clus scale="  356.482">  1  3  2 -1</clus>
</clustering>
</event>
<event>
 6   2  0.3464723E-02  0.4077826E+03  0.7816531E-02  0.1041118E+00
       21   -1    0    0  501  503  0.00000000000E+00  0.00000000000E+00  0.32036074020E+03  0.32036074020E+03  0.00000000000E+00 0.  1.
        2   -1    0    0  504    0  0.00000000000E+00  0.00000000000E+00 -0.10842525836E+04  0.10842525836E+04  0.00000000000E+00 0.  1.
  1000006    1    1    2  501    0 -0.22040200071E+03 -0.83884344203E+02 -0.86805470829E+02  0.43086983520E+03  0.35000000000E+03 0.  0.
 -1000006    1    1    2    0  502  0.19334527782E+03 -0.96739522691E+02 -0.31579541106E+03  0.51862093416E+03  0.35000000000E+03 0.  0.
       21    1    1    2  504  503  0.35239370396E+01  0.39269913231E+02  0.22538873412E+02  0.45415251096E+02  0.00000000000E+00 0.  1.
        2    1    1    2  502    0  0.23532785848E+02  0.14135395366E+03 -0.38382983490E+03  0.40970730331E+03  0.00000000000E+00 0.  1.
<scales pt_clust_1="13000.00000" pt_clust_2="13000.00000" pt_clust_3="39.42771" pt_clust_4="145.07577"></scales>
<clustering>
<clus scale="   39.428">  1  5  2 -1</clus>
<clus scale="  145.076">  2  6  1 -1</clus>
<clus scale="  407.783">  1  3  2 -1</clus>
<clus scale="  407.783">  1  3  2 -1</clus>
</clustering>
</event>
<event>
 5   1  0.3464723E-02  0.3816851E+03  0.7816531E-02  0.1050313E+00
       21   -1    0    0  503  502  0.00000000000E+00  0.00000000000E+00  0.17469466008E+04  0.17469466008E+04  0.00000000000E+00 0. -1.
       21   -1    0    0  501  503  0.00000000000E+00  0.00000000000E+00 -0.15593265217E+03  0.15593265217E+03  0.00000000000E+00 0. -1.
  1000006    1    1    2  501    0  0.13734642339E+03  0.75422293301E+02  0.18070636526E+03  0.42391904038E+03  0.35000000000E+03 0.  0.
 -1000006    1    1    2    0  504 -0.13307187124E+03 -0.40560412691E+02  0.10241520119E+04  0.10912106183E+04  0.35000000000E+03 0.  0.
       21    1    1    2  504  502 -0.42745521585E+01 -0.34861880610E+02  0.38615557150E+03  0.38774959434E+03  0.00000000000E+00 0. -1.
<scales pt_clust_1="13000.00000" pt_clust_2="13000.00000" pt_clust_3="35.12296"></scales>
<clustering>
<clus scale="   35.123">  1  5  2 -1</clus>
<clus scale="  381.685">  1  4  2 -1</clus>
<clus scale="  381.685">  1  3  2 -1</clus>
</clustering>
</event>
<event>
 6   2  0.3464723E-02  0.3897565E+03  0.7816531E-02  0.1047386E+00
       21   -1    0    0  501  502  0.00000000000E+00  0.00000000000E+00  0.11578370246E+04  0.11578370246E+04  0.00000000000E+00 0.  1.
       21   -1    0    0  504  503  0.00000000000E+00  0.00000000000E+00 -0.21954710958E+03  0.21954710958E+03  0.00000000000E+00 0.  1.
  1000006    1    1    2  501    0  0.93729737355E+02 -0.48522798018E+02  0.64825629633E+03  0.74422842685E+03  0.35000000000E+03 0.  0.
 -1000006    1    1    2    0  503 -0.93283417460E+02  0.18375538744E+03  0.15044232121E+03  0.43312899972E+03  0.35000000000E+03 0.  0.
       21    1    1    2  504  505  0.21148599251E+02 -0.95509048012E+02  0.90128038250E+02  0.13301242341E+03  0.00000000000E+00 0.  1.
       21    1    1    2  505  502 -0.21594919146E+02 -0.39723541406E+02  0.49463259227E+02  0.67014284209E+02  0.00000000000E+00 0. -1.
<scales pt_clust_1="13000.00000" pt_clust_2="13000.00000" pt_clust_3="143.26533" pt_clust_4="32.15438"></scales>
<clustering>
<clus scale="   32.154">  5  6 -1 -1</clus>
<clus scale="  143.265">  1  5  2 -1</clus>
<clus scale="  389.756">  1  3  2 -1</clus>
<clus scale="  389.756">  1  3  2 -1</clus>
</clustering>
</event>
<event>
 5   1  0.3464723E-02  0.3747774E+03  0.7816531E-02  0.1052881E+00
       21   -1    0    0  502  503  0.00000000000E+00  0.00000000000E+00  0.56556362211E+03  0.56556362211E+03  0.00000000000E+00 0.  1.
        2   -1    0    0  501    0  0.00000000000E+00  0.00000000000E+00 -0.42626773041E+03  0.42626773041E+03  0.00000000000E+00 0.  1.
  1000006    1    1    2  501    0 -0.78947269225E+02 -0.95164906535E+02 -0.10656387152E+03  0.38619281385E+03  0.35000000000E+03 0.  0.
 -1000006    1    1    2    0  503  0.43767234074E+02  0.13282046346E+03  0.33396023538E+03  0.50357351510E+03  0.35000000000E+03 0.  0.
        2    1    1    2  502    0  0.35180035151E+02 -0.37655556921E+02 -0.88100472173E+02  0.10206502357E+03  0.00000000000E+00 0.  1.
<scales pt_clust_1="13000.00000" pt_clust_2="13000.00000" pt_clust_3="51.53228"></scales>
<clustering>
<clus scale="   51.532">  2  5  1 -1</clus>
<clus scale="  374.777">  1  4  2 -1</clus>
<clus scale="  374.777">  1  3  2 -1</clus>
</clustering>
</event>
<event>
 4   0  0.3464723E-02  0.3564592E+03  0.7816531E-02  0.1059995E+00
       21   -1    0    0  503  502  0.00000000000E+00  0.00000000000E+00  0.51829528190E+02  0.51829528190E+02  0.00000000000E+00 0.  1.
       21   -1    0    0  501  503  0.00000000000E+00  0.00000000000E+00 -0.24637278122E+04  0.24637278122E+04  0.00000000000E+00 0.  1.
  1000006    1    1    2  501    0  0.26914623124E+02 -0.61957995394E+02 -0.12943419370E+04  0.13425290462E+04  0.35000000000E+03 0.  0.
 -1000006    1    1    2    0  502 -0.26914623124E+02  0.61957995394E+02 -0.11175563471E+04  0.11730282942E+04  0.35000000000E+03 0.  0.
<scales pt_clust_1="13000.00000" pt_clust_2="13000.00000"></scales>
<clustering>
<clus scale="  356.459">  2  3  1 -1</clus>
<clus scale="  356.459">  1  3  2 -1</clus>
</clustering>
</event>
<event>
 6   2  0.3464723E-02  0.5672885E+03  0.7816531E-02  0.1008384E+00
        1   -1    0    0  504    0  0.00000000000E+00  0.00000000000E+00  0.11489314172E+04  0.11489314172E+04  0.00000000000E+00 0. -1.
       21   -1    0    0  502  503  0.00000000000E+00  0.00000000000E+00 -0.12877108594E+04  0.12877108594E+04  0.00000000000E+00 0. -1.
  1000006    1    1    2  501    0  0.23230296697E+03 -0.17167631514E+03 -0.22547392274E+03  0.50673061431E+03  0.35000000000E+03 0.  0.
 -1000006    1    1    2    0  503  0.83577455465E+02 -0.18471237279E+03 -0.80099947803E+03  0.89733160845E+03  0.35000000000E+03 0.  0.
       21    1    1    2  504  501  0.35890805755E+02  0.26303026733E+02  0.89273463382E+02  0.99748435663E+02  0.00000000000E+00 0.  1.
        1    1    1    2  502    0 -0.35177122819E+03  0.33008566120E+03  0.79842049518E+03  0.93283161815E+03  0.00000000000E+00 0. -1.
<scales pt_clust_1="13000.00000" pt_clust_2="13000.00000" pt_clust_3="44.49718" pt_clust_4="446.44854"></scales>
<clustering>
<clus scale="   44.497">  1  5  2 -1</clus>
<clus scale="  404.275">  2  4  1 -1</clus>
<clus scale="  446.449">  1  6  2 -1</clus>
<clus scale="  567.289">  2  3  1 -1</clus>
</clustering>
</event>
<event>
 5   1  0.3464723E-02  0.4097319E+03  0.7816531E-02  0.1040461E+00
       21   -1    0    0  501  503  0.00000000000E+00  0.00000000000E+00  0.13338530300E+03  0.13338530300E+03  0.00000000000E+00 0.  1.
        1   -1    0    0  503    0  0.00000000000E+00  0.00000000000E+00 -0.42674529099E+04  0.42674529099E+04  0.00000000000E+00 0.  1.
  1000006    1    1    2  501    0 -0.11013631409E+02  0.19965640310E+03 -0.43403324008E+03  0.59234182097E+03  0.35000000000E+03 0.  0.
 -1000006    1    1    2    0  502  0.10391651085E+03 -0.22195303146E+03 -0.80053922137E+03  0.90742759180E+03  0.35000000000E+03 0.  0.
        1    1    1    2  502    0 -0.92902879444E+02  0.22296628362E+02 -0.28994951454E+04  0.29010688001E+04  0.00000000000E+00 0.  1.
<scales pt_clust_1="13000.00000" pt_clust_2="13000.00000" pt_clust_3="95.54101"></scales>
<clustering>
<clus scale="   95.541">  2  5  1 -1</clus>
<clus scale="  409.732">  1  3  2 -1</clus>
<clus scale="  409.732">  1  3  2 -1</clus>
</clustering>
</event>
<event>
 4   0  0.3464723E-02  0.4503982E+03  0.7816531E-02  0.1027603E+00
       21   -1    0    0  503  502  0.00000000000E+00  0.00000000000E+00  0.14282009583E+03  0.14282009583E+03  0.00000000000E+00 0.  1.
       21   -1    0    0  501  503  0.00000000000E+00  0.00000000000E+00 -0.18885432850E+04  0.18885432850E+04  0.00000000000E+00 0.  1.
  1000006    1    1    2  501    0  0.49218488411E+02  0.27917031474E+03 -0.13785625201E+04  0.14502734729E+04  0.35000000000E+03 0.  0.
 -1000006    1    1    2    0  502 -0.49218488411E+02 -0.27917031474E+03 -0.36716066907E+03  0.58108990797E+03  0.35000000000E+03 0.  0.
<scales pt_clust_1="13000.00000" pt_clust_2="13000.00000"></scales>
<clustering>
<clus scale="  450.398">  2  3  1 -1</clus>
<clus scale="  450.398">  1  3  2 -1</clus>
</clustering>
</event>
<event>
 6   2  0.3464723E-02  0.3731826E+03  0.7816531E-02  0.1053483E+00
       21   -1    0    0  501  502  0.00000000000E+00  0.00000000000E+00  0.10241162064E+04  0.10241162064E+04  0.00000000000E+00 0.  1.
       21   -1    0    0  504  503  0.00000000000E+00  0.00000000000E+00 -0.35545285113E+03  0.35545285113E+03  0.00000000000E+00 0.  1.
  1000006    1    1    2  501    0  0.35119919836E+02  0.68875492453E+02  0.37923580079E+03  0.52182088386E+03  0.35000000000E+03 0.  0.
 -1000006    1    1    2    0  503 -0.79258941832E+02 -0.17138111969E+03  0.40689031154E+03  0.56895798938E+03  0.35000000000E+03 0.  0.
       21    1    1    2  504  505  0.80762375289E+02 -0.47905156456E+02 -0.92823003083E+02  0.13203626463E+03  0.00000000000E+00 0.  1.
       21    1    1    2  505  502 -0.36623353294E+02  0.15041078370E+03 -0.24639753964E+02  0.15675391968E+03  0.00000000000E+00 0.  1.
<scales pt_clust_1="13000.00000" pt_clust_2="13000.00000" pt_clust_3="93.90136" pt_clust_4="132.69092"></scales>
<clustering>
<clus scale="   93.901">  2  5  1 -1</clus>
<clus scale="  132.691">  2  6  1 -1</clus>
<clus scale="  373.183">  1  3  2 -1</clus>
<clus scale="  373.183">  1  3  2 -1</clus>
</clustering>
</event>
<event>
 5   1  0.3464723E-02  0.3789117E+03  0.7816531E-02  0.1051337E+00
       21   -1    0    0  504  502  0.00000000000E+00  0.00000000000E+00  0.13848116196E+04  0.13848116196E+04  0.00000000000E+00 0. -1.
       21   -1    0    0  502  503  0.00000000000E+00  0.00000000000E+00 -0.29359534043E+03  0.29359534043E+03  0.00000000000E+00 0. -1.
  1000006    1    1    2  501    0 -0.12472491762E+03  0.84264858953E+02  0.23808505415E+03  0.44926758679E+03  0.35000000000E+03 0.  0.
 -1000006    1    1    2    0  503  0.10003719195E+03 -0.10259899547E+03  0.27560687028E+01  0.37820839435E+03  0.35000000000E+03 0.  0.
       21    1    1    2  504  501  0.24687725674E+02  0.18334136514E+02  0.85037515626E+03  0.85093097884E+03  0.00000000000E+00 0. -1.
<scales pt_clust_1="13000.00000" pt_clust_2="13000.00000" pt_clust_3="30.75101"></scales>
<clustering>
<clus scale="   30.751">  1  5  2 -1</clus>
<clus scale="  378.912">  2  4  1 -1</clus>
<clus scale="  378.912">  1  3  2 -1</clus>
</clustering>
</event>
<event>
 6   2  0.3464723E-02  0.5215825E+03  0.7816531E-02  0.1008294E+00
        2   -1    0    0  504    0  0.00000000000E+00  0.00000000000E+00  0.10707399096E+04  0.10707399096E+04  0.00000000000E+00 0.  1.
       21   -1    0    0  502  503  0.00000000000E+00  0.00000000000E+00 -0.42526786785E+04  0.42526786785E+04  0.00000000000E+00 0. -1.
  1000006    1    1    2  501    0  0.44483271066E+03 -0.28852085617E+03 -0.17772404962E+04  0.18873802495E+04  0.35000000000E+03 0.  0.
 -1000006    1    1    2    0  503 -0.51694557182E+02  0.36698870628E+03 -0.23332873892E+04  0.23883222308E+04  0.35000000000E+03 0.  0.
       21    1    1    2  504  501  0.38748172195E+02 -0.14694846366E+02  0.14400406736E+03  0.14984835927E+03  0.00000000000E+00 0. -1.
        2    1    1    2  502    0 -0.43188632567E+03 -0.63773003746E+02  0.78458504918E+03  0.89786774845E+03  0.00000000000E+00 0.  1.
<scales pt_clust_1="13000.00000" pt_clust_2="13000.00000" pt_clust_3="41.44103" pt_clust_4="404.03718"></scales>
<clustering>
<clus scale="   41.441">  1  5  2 -1</clus>
<clus scale="  404.037">  1  6  2 -1</clus>
<clus scale="  521.583">  2  4  1 -1</clus>
<clus scale="  521.583">  2  3  1 -1</clus>
</clustering>
</event>
<event>
 4   0  0.3464723E-02  0.3659183E+03  0.7816531E-02  0.1056265E+00
       21   -1    0    0  503  502  0.00000000000E+00  0.00000000000E+00  0.82990206625E+03  0.82990206625E+03  0.00000000000E+00 0.  1.
       21   -1    0    0  501  503  0.00000000000E+00  0.00000000000E+00 -0.19575651808E+03  0.19575651808E+03  0.00000000000E+00 0.  1.
  1000006    1    1    2  501    0  0.10633247363E+03 -0.94679530810E+01  0.10204259984E+03  0.37988015119E+03  0.35000000000E+03 0.  0.
 -1000006    1    1    2    0  502 -0.10633247363E+03  0.94679530810E+01  0.53210294834E+03  0.64577843314E+03  0.35000000000E+03 0.  0.
<scales pt_clust_1="13000.00000" pt_clust_2="13000.00000"></scales>
<clustering>
<clus scale="  365.918">  2  3  1 -1</clus>
<clus scale="  365.918">  1  3  2 -1</clus>
</clustering>
</event>
<event>
 6   2  0.3464723E-02  0.4121342E+03  0.7816531E-02  0.1039657E+00
       21   -1    0    0  505  502  0.00000000000E+00  0.00000000000E+00  0.21553628557E+04  0.21553628557E+04  0.00000000000E+00 0. -1.
       21   -1    0    0  502  503  0.00000000000E+00  0.00000000000E+00 -0.10141561384E+04  0.10141561384E+04  0.00000000000E+00 0. -1.
  1000006    1    1    2  501    0  0.71152603016E+02 -0.17240428801E+03 -0.16275676772E+03  0.42869067739E+03  0.35000000000E+03 0.  0.
 -1000006    1    1    2    0  504 -0.16264361755E+03  0.19911452695E+03 -0.31813138200E+03  0.53833736392E+03  0.35000000000E+03 0.  0.
       21    1    1    2  504  503  0.50077311927E+02 -0.19140945802E+02 -0.28748805852E+03  0.29244400621E+03  0.00000000000E+00 0. -1.
       21    1    1    2  505  501  0.41413702612E+02 -0.75692931466E+01  0.19095829255E+04  0.19100469467E+04  0.00000000000E+00 0. -1.
<scales pt_clust_1="13000.00000" pt_clust_2="13000.00000" pt_clust_3="54.02847" pt_clust_4="42.09975"></scales>
<clustering>
<clus scale="   42.100">  1  6  2 -1</clus>
<clus scale="   54.028">  2  5  1 -1</clus>
<clus scale="  412.134">  2  4  1 -1</clus>
<clus scale="  412.134">  1  3  2 -1</clus>
</clustering>
</event>
<event>
 4   0  0.3464723E-02  0.3556387E+03  0.7816531E-02  0.1060324E+00
       21   -1    0    0  503  502  0.00000000000E+00  0.00000000000E+00  0.22926963218E+03  0.22926963218E+03  0.00000000000E+00 0.  1.
       21   -1    0    0  501  503  0.00000000000E+00  0.00000000000E+00 -0.63614165640E+03  0.63614165640E+03  0.00000000000E+00 0.  1.
  1000006    1    1    2  501    0 -0.60946093058E+02 -0.16261688119E+02 -0.36112342866E+03  0.50684218400E+03  0.35000000000E+03 0.  0.
 -1000006    1    1    2    0  502  0.60946093058E+02  0.16261688119E+02 -0.45748595566E+02  0.35856910458E+03  0.35000000000E+03 0.  0.
<scales pt_clust_1="13000.00000" pt_clust_2="13000.00000"></scales>
<clustering>
<clus scale="  355.639">  2  3  1 -1</clus>
<clus scale="  355.639">  1  3  2 -1</clus>
</clustering>
</event>
<event>
 5   1  0.3464723E-02  0.4675958E+03  0.7816531E-02  0.1022601E+00
       21   -1    0    0  501  502  0.00000000000E+00  0.00000000000E+00  0.16758491469E+04  0.16758491469E+04  0.00000000000E+00 0.  1.
       21   -1    0    0  504  503  0.00000000000E+00  0.00000000000E+00 -0.20251971266E+03  0.20251971266E+03  0.00000000000E+00 0.  1.
  1000006    1    1    2  501    0  0.12850931573E+02 -0.26888143013E+03  0.98030895243E+03  0.10751595287E+04  0.35000000000E+03 0.  0.
 -1000006    1    1    2    0  503  0.82468772824E+00  0.32509613301E+03  0.22321276462E+03  0.52726854078E+03  0.35000000000E+03 0.  0.
       21    1    1    2  504  502 -0.13675619301E+02 -0.56214702876E+02  0.26980771717E+03  0.27594079007E+03  0.00000000000E+00 0. -1.
<scales pt_clust_1="13000.00000" pt_clust_2="13000.00000" pt_clust_3="57.85426"></scales>
<clustering>
<clus scale="   57.854">  1  5  2 -1</clus>
<clus scale="  467.596">  2  4  1 -1</clus>
<clus scale="  467.596">  1  3  2 -1</clus>
</clustering>
</event>
<event>
 6   2  0.3464723E-02  0.4585304E+03  0.7816531E-02  0.1025208E+00
       21   -1    0    0  501  502  0.00000000000E+00  0.00000000000E+00  0.10350591221E+04  0.10350591221E+04  0.00000000000E+00 0. -1.
       21   -1    0    0  504  503  0.00000000000E+00  0.00000000000E+00 -0.77265988083E+03  0.77265988083E+03  0.00000000000E+00 0.  1.
  1000006    1    1    2  501    0 -0.18869914377E+03 -0.15114340283E+03  0.45339229589E+03  0.62170432607E+03  0.35000000000E+03 0.  0.
 -1000006    1    1    2    0  505  0.40071872861E+03  0.13659865393E+03  0.25552329966E+03  0.60582740808E+03  0.35000000000E+03 0.  0.
       21    1    1    2  504  502  0.71583491784E+02 -0.19956685785E+02 -0.43271569582E+02  0.85993571490E+02  0.00000000000E+00 0. -1.
       21    1    1    2  505  503 -0.28360307662E+03  0.34501434681E+02 -0.40324478470E+03  0.49419369730E+03  0.00000000000E+00 0.  1.
<scales pt_clust_1="13000.00000" pt_clust_2="13000.00000" pt_clust_3="74.31329" pt_clust_4="239.23657"></scales>
<clustering>
<clus scale="   74.313">  2  5  1 -1</clus>
<clus scale="  239.237">  2  6  1 -1</clus>
<clus scale="  458.530">  1  3  2 -1</clus>
<clus scale="  458.530">  1  3  2 -1</clus>
</clustering>
</event>
<event>
 6   2  0.3464723E-02  0.4167275E+03  0.7816531E-02  0.1038137E+00
       21   -1    0    0  505  502  0.00000000000E+00  0.00000000000E+00  0.11101854118E+04  0.11101854118E+04  0.00000000000E+00 0. -1.
       21   -1    0    0  504  503  0.00000000000E+00  0.00000000000E+00 -0.35155937552E+03  0.35155937552E+03  0.00000000000E+00 0.  1.
  1000006    1    1    2  501    0 -0.63475267111E+02  0.20845480662E+03  0.26924913403E+03  0.49242015811E+03  0.35000000000E+03 0.  0.
 -1000006    1    1    2    0  502 -0.17183807068E+03 -0.22658523393E+03  0.39069827474E+03  0.59666936628E+03  0.35000000000E+03 0.  0.
       21    1    1    2  504  501  0.27955342973E+03  0.31353632548E+02  0.20745086470E+02  0.28207007810E+03  0.00000000000E+00 0.  1.
       21    1    1    2  505  503 -0.44240091943E+02 -0.13223205233E+02  0.77933541005E+02  0.90585184800E+02  0.00000000000E+00 0.  1.
<scales pt_clust_1="13000.00000" pt_clust_2="13000.00000" pt_clust_3="274.60302" pt_clust_4="46.17401"></scales>
<clustering>
<clus scale="   46.174">  1  6  2 -1</clus>
<clus scale="  274.603">  2  5  1 -1</clus>
<clus scale="  416.727">  1  4  2 -1</clus>
<clus scale="  416.727">  1  3  2 -1</clus>
</clustering>
</event>
<event>
 5   1  0.3464723E-02  0.3676146E+03  0.7816531E-02  0.1055609E+00
       21   -1    0    0  504  502  0.00000000000E+00  0.00000000000E+00  0.19607622940E+04  0.19607622940E+04  0.00000000000E+00 0. -1.
       21   -1    0    0  502  503  0.00000000000E+00  0.00000000000E+00 -0.66739059396E+03  0.66739059396E+03  0.00000000000E+00 0.  1.
  1000006    1    1    2  501    0  0.10769865360E+02 -0.10074508896E+03 -0.11370794007E+03  0.38170022083E+03  0.35000000000E+03 0.  0.
 -1000006    1    1    2    0  503 -0.39689050833E+02  0.11353557921E+03 -0.33792740612E+03  0.50115913671E+03  0.35000000000E+03 0.  0.
       21    1    1    2  504  501  0.28919185473E+02 -0.12790490251E+02  0.17450070463E+04  0.17452935304E+04  0.00000000000E+00 0. -1.
<scales pt_clust_1="13000.00000" pt_clust_2="13000.00000" pt_clust_3="31.62145"></scales>
<clustering>
<clus scale="   31.621">  1  5  2 -1</clus>
<clus scale="  367.615">  2  4  1 -1</clus>
<clus scale="  367.615">  1  3  2 -1</clus>
</clustering>
</event>
<event>
 5   1  0.3464723E-02  0.3555526E+03  0.7816531E-02  0.1060359E+00
        1   -1    0    0  501    0  0.00000000000E+00  0.00000000000E+00  0.28141894252E+03  0.28141894252E+03  0.00000000000E+00 0. -1.
       21   -1    0    0  502  503  0.00000000000E+00  0.00000000000E+00 -0.17380053936E+04  0.17380053936E+04  0.00000000000E+00 0. -1.
  1000006    1    1    2  501    0  0.37608284694E+02 -0.67061738574E+02 -0.35846573089E+03  0.50686224961E+03  0.35000000000E+03 0.  0.
 -1000006    1    1    2    0  503  0.88434721594E+02  0.13984701585E+02 -0.12541104630E+04  0.13051089323E+04  0.35000000000E+03 0.  0.
        1    1    1    2  502    0 -0.12604300629E+03  0.53077036989E+02  0.15598974284E+03  0.20745315414E+03  0.00000000000E+00 0. -1.
<scales pt_clust_1="13000.00000" pt_clust_2="13000.00000" pt_clust_3="136.76261"></scales>
<clustering>
<clus scale="  136.763">  1  5  2 -1</clus>
<clus scale="  355.553">  2  4  1 -1</clus>
<clus scale="  355.553">  2  3  1 -1</clus>
</clustering>
</event>
<event>
 5   1  0.3464723E-02  0.4611987E+03  0.7816531E-02  0.1024434E+00
       21   -1    0    0  504  502  0.00000000000E+00  0.00000000000E+00  0.16125603710E+04  0.16125603710E+04  0.00000000000E+00 0.  1.
       21   -1    0    0  501  503  0.00000000000E+00  0.00000000000E+00 -0.65479288710E+03  0.65479288710E+03  0.00000000000E+00 0.  1.
  1000006    1    1    2  501    0 -0.29093332656E+03 -0.82888646972E+02 -0.51034599995E+03  0.68881475591E+03  0.35000000000E+03 0.  0.
 -1000006    1    1    2    0  502  0.27627938934E+03  0.44045311528E+02  0.86651611444E+03  0.97551036234E+03  0.35000000000E+03 0.  0.
       21    1    1    2  504  503  0.14653937224E+02  0.38843335444E+02  0.60159736940E+03  0.60302813985E+03  0.00000000000E+00 0.  1.
<scales pt_clust_1="13000.00000" pt_clust_2="13000.00000" pt_clust_3="41.51557"></scales>
<clustering>
<clus scale="   41.516">  1  5  2 -1</clus>
<clus scale="  461.199">  1  4  2 -1</clus>
<clus scale="  461.199">  1  3  2 -1</clus>
</clustering>
</event>
<event>
 4   0  0.3464723E-02  0.4337748E+03  0.7816531E-02  0.1032674E+00
        2   -1    0    0  502    0  0.00000000000E+00  0.00000000000E+00  0.47936219038E+03  0.47936219038E+03  0.00000000000E+00 0.  1.
       -2   -1    0    0    0  501  0.00000000000E+00  0.00000000000E+00 -0.43998281200E+03  0.43998281200E+03  0.00000000000E+00 0. -1.
  1000006    1    1    2  502    0  0.23212733959E+02  0.25518956686E+03  0.17066120025E+03  0.46613924027E+03  0.35000000000E+03 0.  0.
 -1000006    1    1    2    0  501 -0.23212733959E+02 -0.25518956686E+03 -0.13128182187E+03  0.45320576211E+03  0.35000000000E+03 0.  0.
<scales pt_clust_1="13000.00000" pt_clust_2="13000.00000"></scales>
<clustering>
<clus scale="  690.032">  3  4 -1 -1</clus>
<clus scale="  433.775">  1  3  2 -1</clus>
</clustering>
</event>
<event>
 4   0  0.3464723E-02  0.3729721E+03  0.7816531E-02  0.1053562E+00
       21   -1    0    0  503  502  0.00000000000E+00  0.00000000000E+00  0.22020613667E+03  0.22020613667E+03  0.00000000000E+00 0. -1.
       21   -1    0    0  501  503  0.00000000000E+00  0.00000000000E+00 -0.90288143217E+03  0.90288143217E+03  0.00000000000E+00 0. -1.
  1000006    1    1    2  501    0 -0.12600106986E+03 -0.27053590501E+02 -0.64907759513E+03  0.74860529711E+03  0.35000000000E+03 0.  0.
 -1000006    1    1    2    0  502  0.12600106986E+03  0.27053590501E+02 -0.33597700365E+02  0.37448227172E+03  0.35000000000E+03 0.  0.
<scales pt_clust_1="13000.00000" pt_clust_2="13000.00000"></scales>
<clustering>
<clus scale="  372.972">  2  3  1 -1</clus>
<clus scale="  372.972">  1  3  2 -1</clus>
</clustering>
</event>
<event>
 4   0  0.3464723E-02  0.3755600E+03  0.7816531E-02  0.1052587E+00
       21   -1    0    0  503  502  0.00000000000E+00  0.00000000000E+00  0.37984669108E+03  0.37984669108E+03  0.00000000000E+00 0.  1.
       21   -1    0    0  501  503  0.00000000000E+00  0.00000000000E+00 -0.37138407632E+03  0.37138407632E+03  0.00000000000E+00 0.  1.
  1000006    1    1    2  501    0 -0.96052808199E+02  0.96535860156E+02 -0.63708624260E+00  0.37556054124E+03  0.35000000000E+03 0.  0.
 -1000006    1    1    2    0  502  0.96052808199E+02 -0.96535860156E+02  0.90997010035E+01  0.37567022615E+03  0.35000000000E+03 0.  0.
<scales pt_clust_1="13000.00000" pt_clust_2="13000.00000"></scales>
<clustering>
<clus scale="  375.560">  2  3  1 -1</clus>
<clus scale="  375.560">  1  3  2 -1</clus>
</clustering>
</event>
<event>
 6   2  0.3464723E-02  0.3815825E+03  0.7816531E-02  0.1050350E+00
        2   -1    0    0  503    0  0.00000000000E+00  0.00000000000E+00  0.29929346659E+04  0.29929346659E+04  0.00000000000E+00 0.  1.
       21   -1    0    0  501  503  0.00000000000E+00  0.00000000000E+00 -0.39677825871E+03  0.39677825871E+03  0.00000000000E+00 0. -1.
  1000006    1    1    2  501    0 -0.11400973541E+02  0.13961823999E+03 -0.12722190650E+03  0.39788019381E+03  0.35000000000E+03 0.  0.
 -1000006    1    1    2    0  504  0.13143045389E+03 -0.15478926286E+03  0.17648631336E+03  0.44145339382E+03  0.35000000000E+03 0.  0.
       21    1    1    2  504  502 -0.55874060401E+02  0.57377633863E+01  0.66411220311E+03  0.66648319624E+03  0.00000000000E+00 0.  1.
        2    1    1    2  502    0 -0.64155419947E+02  0.94332594892E+01  0.18827797972E+04  0.18838961407E+04  0.00000000000E+00 0.  1.
<scales pt_clust_1="13000.00000" pt_clust_2="13000.00000" pt_clust_3="52.14078" pt_clust_4="133.32630"></scales>
<clustering>
<clus scale="   52.141">  5  6 -1 -1</clus>
<clus scale="  133.326">  1  5  2 -1</clus>
<clus scale="  381.582">  2  3  1 -1</clus>
<clus scale="  381.582">  2  3  1 -1</clus>
</clustering>
</event>
<event>
 6   2  0.3464723E-02  0.3645056E+03  0.7816531E-02  0.1056814E+00
       21   -1    0    0  501  503  0.00000000000E+00  0.00000000000E+00  0.32559563650E+03  0.32559563650E+03  0.00000000000E+00 0.  1.
        1   -1    0    0  503    0  0.00000000000E+00  0.00000000000E+00 -0.93440600795E+03  0.93440600795E+03  0.00000000000E+00 0.  1.
  1000006    1    1    2  501    0 -0.35917808659E+02  0.14028617732E+03  0.21547719539E+02  0.37938714362E+03  0.35000000000E+03 0.  0.
 -1000006    1    1    2    0  504 -0.15871701106E+02 -0.42360101152E+02 -0.14555375480E+03  0.38174885017E+03  0.35000000000E+03 0.  0.
       21    1    1    2  504  502  0.35055775497E+02 -0.53407951327E+02 -0.19536884950E+03  0.20554878744E+03  0.00000000000E+00 0.  1.
        1    1    1    2  502    0  0.16733734269E+02 -0.44518124842E+02 -0.28943548669E+03  0.29331686323E+03  0.00000000000E+00 0.  1.
<scales pt_clust_1="13000.00000" pt_clust_2="13000.00000" pt_clust_3="34.07869" pt_clust_4="117.60822"></scales>
<clustering>
<clus scale="   34.079">  5  6 -1 -1</clus>
<clus scale="  117.608">  2  5  1 -1</clus>
<clus scale="  364.506">  1  3  2 -1</clus>
<clus scale="  364.506">  1  3  2 -1</clus>
</clustering>
</event>
<event>
 5   1  0.3464723E-02  0.3699759E+03  0.7816531E-02  0.1054702E+00
       21   -1    0    0  501  502  0.00000000000E+00  0.00000000000E+00  0.92492233356E+03  0.92492233356E+03  0.00000000000E+00 0.  1.
       21   -1    0    0  504  503  0.00000000000E+00  0.00000000000E+00 -0.61641099278E+03  0.61641099278E+03  0.00000000000E+00 0. -1.
  1000006    1    1    2  501    0 -0.70722725276E+02 -0.20423598072E+02  0.45789289143E+03  0.58102041896E+03  0.35000000000E+03 0.  0.
 -1000006    1    1    2    0  503  0.15101219800E+03  0.14310326358E+03  0.28818714306E+03  0.49883369715E+03  0.35000000000E+03 0.  0.
       21    1    1    2  504  502 -0.80289472721E+02 -0.12267966551E+03 -0.43756869371E+03  0.46147921023E+03  0.00000000000E+00 0. -1.
<scales pt_clust_1="13000.00000" pt_clust_2="13000.00000" pt_clust_3="146.61753"></scales>
<clustering>
<clus scale="  146.618">  2  5  1 -1</clus>
<clus scale="  369.976">  1  3  2 -1</clus>
<clus scale="  369.976">  1  3  2 -1</clus>
</clustering>
</event>
<event>
 5   1  0.3464723E-02  0.4656612E+03  0.7816531E-02  0.1023152E+00
       21   -1    0    0  504  502  0.00000000000E+00  0.00000000000E+00  0.28792860758E+03  0.28792860758E+03  0.00000000000E+00 0. -1.
       21   -1    0    0  502  503  0.00000000000E+00  0.00000000000E+00 -0.10237861049E+04  0.10237861049E+04  0.00000000000E+00 0. -1.
  1000006    1    1    2  501    0 -0.25176712412E+03  0.42517996196E+02 -0.14829093690E+03  0.45791338346E+03  0.35000000000E+03 0.  0.
 -1000006    1    1    2    0  503  0.33957158603E+03  0.15815982360E+02 -0.56404728457E+03  0.74579376946E+03  0.35000000000E+03 0.  0.
       21    1    1    2  504  501 -0.87804461909E+02 -0.58333978556E+02 -0.23519275855E+02  0.10800755956E+03  0.00000000000E+00 0. -1.
<scales pt_clust_1="13000.00000" pt_clust_2="13000.00000" pt_clust_3="105.41573"></scales>
<clustering>
<clus scale="  105.416">  1  5  2 -1</clus>
<clus scale="  465.661">  1  3  2 -1</clus>
<clus scale="  465.661">  1  3  2 -1</clus>
</clustering>
</event>
<event>
 5   1  0.3464723E-02  0.3633129E+03  0.7816531E-02  0.1057280E+00
       21   -1    0    0  502  503  0.00000000000E+00  0.00000000000E+00  0.53958482165E+03  0.53958482165E+03  0.00000000000E+00 0. -1.
        1   -1    0    0  501    0  0.00000000000E+00  0.00000000000E+00 -0.11575149184E+04  0.11575149184E+04  0.00000000000E+00 0.  1.
  1000006    1    1    2  501    0 -0.39136437646E+02 -0.11019352245E+02 -0.15147156752E+03  0.38353190564E+03  0.35000000000E+03 0.  0.
 -1000006    1    1    2    0  503 -0.47660572898E+02  0.11931047676E+03  0.33436614331E+03  0.50080658728E+03  0.35000000000E+03 0.  0.
        1    1    1    2  502    0  0.86797010544E+02 -0.10829112452E+03 -0.80082467251E+03  0.81276124710E+03  0.00000000000E+00 0.  1.
<scales pt_clust_1="13000.00000" pt_clust_2="13000.00000" pt_clust_3="138.78288"></scales>
<clustering>
<clus scale="  138.783">  2  5  1 -1</clus>
<clus scale="  363.313">  2  3  1 -1</clus>
<clus scale="  363.313">  1  3  2 -1</clus>
</clustering>
</event>
<event>
 4   0  0.3464723E-02  0.3577396E+03  0.7816531E-02  0.1059482E+00
       21   -1    0    0  503  502  0.00000000000E+00  0.00000000000E+00  0.14257584943E+03  0.14257584943E+03  0.00000000000E+00 0.  1.
       21   -1    0    0  501  503  0.00000000000E+00  0.00000000000E+00 -0.90896573079E+03  0.90896573079E+03  0.00000000000E+00 0.  1.
  1000006    1    1    2  501    0 -0.53487808232E+02 -0.51153657704E+02 -0.44195906307E+03  0.56859955659E+03  0.35000000000E+03 0.  0.
 -1000006    1    1    2    0  502  0.53487808232E+02  0.51153657704E+02 -0.32443081829E+03  0.48294202363E+03  0.35000000000E+03 0.  0.
<scales pt_clust_1="13000.00000" pt_clust_2="13000.00000"></scales>
<clustering>
<clus scale="  357.740">  2  3  1 -1</clus>
<clus scale="  357.740">  1  3  2 -1</clus>
</clustering>
</event>
<event>
 5   1  0.3464723E-02  0.7160109E+03  0.7816531E-02  0.9690237E-01
       21   -1    0    0  501  502  0.00000000000E+00  0.00000000000E+00  0.13061837316E+04  0.13061837316E+04  0.00000000000E+00 0. -1.
       21   -1    0    0  504  503  0.00000000000E+00  0.00000000000E+00 -0.76022695827E+03  0.76022695827E+03  0.00000000000E+00 0. -1.
  1000006    1    1    2  501    0  0.48645842790E+03  0.36767504709E+03  0.83413991951E+02  0.70801457356E+03  0.35000000000E+03 0.  0.
 -1000006    1    1    2    0  503 -0.52316843686E+03 -0.36153552450E+03 -0.15291038417E+03  0.74181853198E+03  0.35000000000E+03 0.  0.
       21    1    1    2  504  502  0.36710008964E+02 -0.61395225865E+01  0.61545316552E+03  0.61657758428E+03  0.00000000000E+00 0. -1.
<scales pt_clust_1="13000.00000" pt_clust_2="13000.00000" pt_clust_3="37.21987"></scales>
<clustering>
<clus scale="   37.220">  1  5  2 -1</clus>
<clus scale="  716.011">  2  4  1 -1</clus>
<clus scale="  716.011">  1  3  2 -1</clus>
</clustering>
</event>
<event>
 6   2  0.3464723E-02  0.5169914E+03  0.7816531E-02  0.1009437E+00
        1   -1    0    0  504    0  0.00000000000E+00  0.00000000000E+00  0.11808592490E+04  0.11808592490E+04  0.00000000000E+00 0. -1.
       21   -1    0    0  501  503  0.00000000000E+00  0.00000000000E+00 -0.11474239665E+04  0.11474239665E+04  0.00000000000E+00 0.  1.
  1000006    1    1    2  501    0  0.24029915882E+03  0.24201237472E+03 -0.15097886019E+03  0.51147657959E+03  0.35000000000E+03 0.  0.
 -1000006    1    1    2    0  502 -0.28840043301E+03 -0.28245410348E+03  0.36952665523E+03  0.64961918018E+03  0.35000000000E+03 0.  0.
       21    1    1    2  504  503  0.17788813792E+02  0.54681574783E+02 -0.67435392349E+03  0.67680110125E+03  0.00000000000E+00 0.  1.
        1    1    1    2  502    0  0.30312460402E+02 -0.14239846030E+02  0.48924141097E+03  0.49038635450E+03  0.00000000000E+00 0. -1.
<scales pt_clust_1="13000.00000" pt_clust_2="13000.00000" pt_clust_3="57.49497" pt_clust_4="33.49057"></scales>
<clustering>
<clus scale="   33.491">  1  6  2 -1</clus>
<clus scale="   57.495">  2  5  1 -1</clus>
<clus scale="  516.991">  2  3  1 -1</clus>
<clus scale="  516.991">  2  3  1 -1</clus>
</clustering>
</event>
<event>
 5   1  0.3464723E-02  0.5453387E+03  0.7816531E-02  0.1002579E+00
       21   -1    0    0  504  502  0.00000000000E+00  0.00000000000E+00  0.90650959683E+03  0.90650959683E+03  0.00000000000E+00 0. -1.
       21   -1    0    0  501  503  0.00000000000E+00  0.00000000000E+00 -0.39159435963E+03  0.39159435963E+03  0.00000000000E+00 0.  1.
  1000006    1    1    2  501    0 -0.12948680365E+03 -0.43294392699E+03  0.14215387269E+03  0.58899490640E+03  0.35000000000E+03 0.  0.
 -1000006    1    1    2    0  502  0.66154622171E+02  0.37185204757E+03  0.31025207182E+03  0.60117112987E+03  0.35000000000E+03 0.  0.
       21    1    1    2  504  503  0.63332181484E+02  0.61091879420E+02  0.62509292692E+02  0.10793792019E+03  0.00000000000E+00 0. -1.
<scales pt_clust_1="13000.00000" pt_clust_2="13000.00000" pt_clust_3="87.99536"></scales>
<clustering>
<clus scale="   87.995">  1  5  2 -1</clus>
<clus scale="  545.339">  1  4  2 -1</clus>
<clus scale="  545.339">  1  3  2 -1</clus>
</clustering>
</event>
<event>
 6   2  0.3464723E-02  0.3595490E+03  0.7816531E-02  0.1058763E+00
       21   -1    0    0  503  502  0.00000000000E+00  0.00000000000E+00  0.47923617348E+03  0.47923617348E+03  0.00000000000E+00 0.  1.
       21   -1    0    0  504  503  0.00000000000E+00  0.00000000000E+00 -0.88991770660E+03  0.88991770660E+03  0.00000000000E+00 0.  1.
  1000006    1    1    2  501    0  0.18547346152E+03 -0.15040314300E+03 -0.15944786195E+03  0.45270866021E+03  0.35000000000E+03 0.  0.
 -1000006    1    1    2    0  505  0.40210231188E+02 -0.36439247812E+02 -0.13610657150E+03  0.37943336738E+03  0.35000000000E+03 0.  0.
       21    1    1    2  504  501 -0.17810385825E+03  0.17749069605E+03 -0.27341915213E+03  0.37145923633E+03  0.00000000000E+00 0.  1.
       21    1    1    2  505  502 -0.47579834456E+02  0.93516947650E+01  0.15829205247E+03  0.16555261615E+03  0.00000000000E+00 0.  1.
<scales pt_clust_1="13000.00000" pt_clust_2="13000.00000" pt_clust_3="257.70358" pt_clust_4="48.49015"></scales>
<clustering>
<clus scale="   48.490">  1  6  2 -1</clus>
<clus scale="  257.704">  2  5  1 -1</clus>
<clus scale="  359.549">  2  3  1 -1</clus>
<clus scale="  359.549">  1  3  2 -1</clus>
</clustering>
</event>
<event>
 4   0  0.3464723E-02  0.4307056E+03  0.7816531E-02  0.1033637E+00
       21   -1    0    0  501  502  0.00000000000E+00  0.00000000000E+00  0.11421583284E+03  0.11421583284E+03  0.00000000000E+00 0.  1.
       21   -1    0    0  502  503  0.00000000000E+00  0.00000000000E+00 -0.17279348254E+04  0.17279348254E+04  0.00000000000E+00 0.  1.
  1000006    1    1    2  501    0 -0.16772731300E+03 -0.18674806219E+03 -0.58115946862E+03  0.72336271554E+03  0.35000000000E+03 0.  0.
 -1000006    1    1    2    0  503  0.16772731300E+03  0.18674806219E+03 -0.10325595239E+04  0.11187879427E+04  0.35000000000E+03 0.  0.
<scales pt_clust_1="13000.00000" pt_clust_2="13000.00000"></scales>
<clustering>
<clus scale="  430.706">  1  3  2 -1</clus>
<clus scale="  430.706">  1  3  2 -1</clus>
</clustering>
</event>
<event>
 4   0  0.3464723E-02  0.4394558E+03  0.7816531E-02  0.1030914E+00
       21   -1    0    0  503  502  0.00000000000E+00  0.00000000000E+00  0.23596348145E+03  0.23596348145E+03  0.00000000000E+00 0. -1.
       21   -1    0    0  501  503  0.00000000000E+00  0.00000000000E+00 -0.82781828554E+03  0.82781828554E+03  0.00000000000E+00 0. -1.
  1000006    1    1    2  501    0  0.42999818800E+02  0.26224488687E+03 -0.35254798325E+03  0.56339279867E+03  0.35000000000E+03 0.  0.
 -1000006    1    1    2    0  502 -0.42999818800E+02 -0.26224488687E+03 -0.23930682084E+03  0.50038896831E+03  0.35000000000E+03 0.  0.
<scales pt_clust_1="13000.00000" pt_clust_2="13000.00000"></scales>
<clustering>
<clus scale="  439.456">  2  3  1 -1</clus>
<clus scale="  439.456">  1  3  2 -1</clus>
</clustering>
</event>
<event>
 5   1  0.3464723E-02  0.3934540E+03  0.7816531E-02  0.1046070E+00
       21   -1    0    0  504  502  0.00000000000E+00  0.00000000000E+00  0.24447958261E+03  0.24447958261E+03  0.00000000000E+00 0.  1.
       21   -1    0    0  501  503  0.00000000000E+00  0.00000000000E+00 -0.15989449174E+04  0.15989449174E+04  0.00000000000E+00 0.  1.
  1000006    1    1    2  501    0 -0.18315771419E+03  0.64804775519E+02 -0.90452073518E+03  0.98914314817E+03  0.35000000000E+03 0.  0.
 -1000006    1    1    2    0  502  0.13692939881E+03 -0.87726914971E+02 -0.59000480852E+03  0.70501868482E+03  0.35000000000E+03 0.  0.
       21    1    1    2  504  503  0.46228315378E+02  0.22922139452E+02  0.14006020896E+03  0.14926266698E+03  0.00000000000E+00 0. -1.
<scales pt_clust_1="13000.00000" pt_clust_2="13000.00000" pt_clust_3="51.59924"></scales>
<clustering>
<clus scale="   51.599">  1  5  2 -1</clus>
<clus scale="  393.454">  1  4  2 -1</clus>
<clus scale="  393.454">  1  3  2 -1</clus>
</clustering>
</event>
<event>
 4   0  0.3464723E-02  0.3564165E+03  0.7816531E-02  0.1060012E+00
       21   -1    0    0  503  502  0.00000000000E+00  0.00000000000E+00  0.50085474222E+03  0.50085474222E+03  0.00000000000E+00 0. -1.
       21   -1    0    0  501  503  0.00000000000E+00  0.00000000000E+00 -0.35356613089E+03  0.35356613089E+03  0.00000000000E+00 0. -1.
  1000006    1    1    2  501    0 -0.23935887826E+02  0.62926932701E+02 -0.15348005878E+03  0.38805779728E+03  0.35000000000E+03 0.  0.
 -1000006    1    1    2    0  502  0.23935887826E+02 -0.62926932701E+02  0.30076867010E+03  0.46636307583E+03  0.35000000000E+03 0.  0.
<scales pt_clust_1="13000.00000" pt_clust_2="13000.00000"></scales>
<clustering>
<clus scale="  356.417">  2  3  1 -1</clus>
<clus scale="  356.417">  1  3  2 -1</clus>
</clustering>
</event>
<event>
 6   2  0.3464723E-02  0.4020268E+03  0.7816531E-02  0.1043080E+00
       21   -1    0    0  502  503  0.00000000000E+00  0.00000000000E+00  0.51331828063E+03  0.51331828063E+03  0.00000000000E+00 0.  1.
        2   -1    0    0  504    0  0.00000000000E+00  0.00000000000E+00 -0.11171875881E+04  0.11171875881E+04  0.00000000000E+00 0. -1.
  1000006    1    1    2  501    0  0.46629428200E+02  0.22748960763E+03  0.19650186877E+02  0.42049013662E+03  0.35000000000E+03 0.  0.
 -1000006    1    1    2    0  503 -0.10338689762E+03 -0.14900395590E+03  0.15052157290E+03  0.42195707528E+03  0.35000000000E+03 0.  0.
       21    1    1    2  504  501 -0.13366971452E+02 -0.42154271260E+02 -0.99185593776E+02  0.10859760828E+03  0.00000000000E+00 0.  1.
        2    1    1    2  502    0  0.70124440867E+02 -0.36331380472E+02 -0.67485547351E+03  0.67946104858E+03  0.00000000000E+00 0. -1.
<scales pt_clust_1="13000.00000" pt_clust_2="13000.00000" pt_clust_3="44.22283" pt_clust_4="88.90961"></scales>
<clustering>
<clus scale="   44.223">  2  5  1 -1</clus>
<clus scale="   88.910">  2  6  1 -1</clus>
<clus scale="  402.027">  1  4  2 -1</clus>
<clus scale="  402.027">  1  3  2 -1</clus>
</clustering>
</event>
<event>
 5   1  0.3464723E-02  0.4607342E+03  0.7816531E-02  0.1024568E+00
       21   -1    0    0  501  502  0.00000000000E+00  0.00000000000E+00  0.22248825117E+04  0.22248825117E+04  0.00000000000E+00 0.  1.
       21   -1    0    0  504  503  0.00000000000E+00  0.00000000000E+00 -0.17764834937E+03  0.17764834937E+03  0.00000000000E+00 0.  1.
  1000006    1    1    2  501    0 -0.27355402500E+03  0.12279378865E+03  0.59128585671E+03  0.74968598991E+03  0.35000000000E+03 0.  0.
 -1000006    1    1    2    0  503  0.25677628423E+03 -0.15605791483E+03  0.44413795081E+03  0.64034885201E+03  0.35000000000E+03 0.  0.
       21    1    1    2  504  502  0.16777740772E+02  0.33264126173E+02  0.10118103548E+04  0.10124960191E+04  0.00000000000E+00 0.  1.
<scales pt_clust_1="13000.00000" pt_clust_2="13000.00000" pt_clust_3="37.25580"></scales>
<clustering>
<clus scale="   37.256">  1  5  2 -1</clus>
<clus scale="  460.734">  1  3  2 -1</clus>
<clus scale="  460.734">  1  3  2 -1</clus>
</clustering>
</event>
<event>
 5   1  0.3464723E-02  0.4026217E+03  0.7816531E-02  0.1042876E+00
       21   -1    0    0  503  502  0.00000000000E+00  0.00000000000E+00  0.13007751319E+04  0.13007751319E+04  0.00000000000E+00 0. -1.
       21   -1    0    0  504  503  0.00000000000E+00  0.00000000000E+00 -0.96226088862E+03  0.96226088862E+03  0.00000000000E+00 0. -1.
  1000006    1    1    2  501    0  0.65714104316E+02  0.15102938499E+03  0.37449917839E+03  0.53840305836E+03  0.35000000000E+03 0.  0.
 -1000006    1    1    2    0  502 -0.21940148298E+03 -0.10045373439E+03  0.78238440124E+03  0.89042310998E+03  0.35000000000E+03 0.  0.
       21    1    1    2  504  501  0.15368737866E+03 -0.50575650595E+02 -0.81836933635E+03  0.83420985218E+03  0.00000000000E+00 0. -1.
<scales pt_clust_1="13000.00000" pt_clust_2="13000.00000" pt_clust_3="161.79526"></scales>
<clustering>
<clus scale="  161.795">  2  5  1 -1</clus>
<clus scale="  402.622">  1  4  2 -1</clus>
<clus scale="  402.622">  1  3  2 -1</clus>
</clustering>
</event>
<event>
 5   1  0.3464723E-02  0.3805566E+03  0.7816531E-02  0.1050728E+00
        1   -1    0    0  503    0  0.00000000000E+00  0.00000000000E+00  0.12641186090E+04  0.12641186090E+04  0.00000000000E+00 0.  1.
       21   -1    0    0  501  503  0.00000000000E+00  0.00000000000E+00 -0.49786480202E+03  0.49786480202E+03  0.00000000000E+00 0.  1.
  1000006    1    1    2  501    0 -0.10477181419E+03 -0.13577398544E+03 -0.13433092437E+03  0.41225781425E+03  0.35000000000E+03 0.  0.
 -1000006    1    1    2    0  502  0.14446381973E+03  0.24947557580E+02 -0.58060833822E+02  0.38387919488E+03  0.35000000000E+03 0.  0.
        1    1    1    2  502    0 -0.39692005539E+02  0.11082642786E+03  0.95864556516E+03  0.96584640188E+03  0.00000000000E+00 0.  1.
<scales pt_clust_1="13000.00000" pt_clust_2="13000.00000" pt_clust_3="117.71980"></scales>
<clustering>
<clus scale="  117.720">  1  5  2 -1</clus>
<clus scale="  380.557">  1  4  2 -1</clus>
<clus scale="  380.557">  2  3  1 -1</clus>
</clustering>
</event>
<event>
 6   2  0.3464723E-02  0.4248734E+03  0.7816531E-02  0.1035492E+00
       21   -1    0    0  501  502  0.00000000000E+00  0.00000000000E+00  0.84440317228E+03  0.84440317228E+03  0.00000000000E+00 0.  1.
       21   -1    0    0  504  503  0.00000000000E+00  0.00000000000E+00 -0.96555555952E+03  0.96555555952E+03  0.00000000000E+00 0.  1.
  1000006    1    1    2  501    0  0.24377471273E+03  0.10195939457E+03  0.41136202479E+03  0.60128241630E+03  0.35000000000E+03 0.  0.
 -1000006    1    1    2    0  505 -0.19766611942E+03 -0.96737549355E+02 -0.65288908242E+03  0.77278341219E+03  0.35000000000E+03 0.  0.
       21    1    1    2  504  502 -0.43920870347E+02  0.33611082725E+02  0.27291990169E+03  0.27846727002E+03  0.00000000000E+00 0. -1.
       21    1    1    2  505  503 -0.21877229655E+01 -0.38832927938E+02 -0.15254523130E+03  0.15742563329E+03  0.00000000000E+00 0. -1.
<scales pt_clust_1="13000.00000" pt_clust_2="13000.00000" pt_clust_3="55.23124" pt_clust_4="38.89450"></scales>
<clustering>
<clus scale="   38.895">  2  6  1 -1</clus>
<clus scale="   55.231">  1  5  2 -1</clus>
<clus scale="  424.873">  2  4  1 -1</clus>
<clus scale="  424.873">  1  3  2 -1</clus>
</clustering>
</event>
<event>
 6   2  0.3464723E-02  0.3712392E+03  0.7816531E-02  0.1054220E+00
       21   -1    0    0  504  502  0.00000000000E+00  0.00000000000E+00  0.10366310501E+04  0.10366310501E+04  0.00000000000E+00 0.  1.
       21   -1    0    0  501  503  0.00000000000E+00  0.00000000000E+00 -0.41916270031E+03  0.41916270031E+03  0.00000000000E+00 0.  1.
  1000006    1    1    2  501    0 -0.60162253324E+02  0.10536479919E+03 -0.75159053469E+02  0.37798164103E+03  0.35000000000E+03 0.  0.
 -1000006    1    1    2    0  502  0.30137605519E+01 -0.13543401503E+03 -0.32267164030E+01  0.37531568963E+03  0.35000000000E+03 0.  0.
       21    1    1    2  504  505  0.37034687426E+02 -0.73701044396E+01  0.52788785992E+03  0.52923669484E+03  0.00000000000E+00 0.  1.
       21    1    1    2  505  503  0.20113805347E+02  0.37439320283E+02  0.16796625979E+03  0.17325972497E+03  0.00000000000E+00 0.  1.
<scales pt_clust_1="13000.00000" pt_clust_2="13000.00000" pt_clust_3="37.76091" pt_clust_4="47.77061"></scales>
<clustering>
<clus scale="   37.761">  1  5  2 -1</clus>
<clus scale="   47.771">  1  6  2 -1</clus>
<clus scale="  371.239">  1  4  2 -1</clus>
<clus scale="  371.239">  1  3  2 -1</clus>
</clustering>
</event>
<event>
 5   1  0.3464723E-02  0.3924948E+03  0.7816531E-02  0.1046410E+00
       21   -1    0    0  504  502  0.00000000000E+00  0.00000000000E+00  0.27554664115E+03  0.27554664115E+03  0.00000000000E+00 0. -1.
       21   -1    0    0  501  503  0.00000000000E+00  0.00000000000E+00 -0.79540642658E+03  0.79540642658E+03  0.00000000000E+00 0. -1.
  1000006    1    1    2  501    0 -0.13894119625E+03  0.55159222555E+01 -0.32996570294E+03  0.50071193967E+03  0.35000000000E+03 0.  0.
 -1000006    1    1    2    0  502  0.24713761021E+03  0.77960779701E+01 -0.14589487598E+03  0.45268431831E+03  0.35000000000E+03 0.  0.
       21    1    1    2  504  503 -0.10819641396E+03 -0.13312000226E+02 -0.43999206511E+02  0.11755680975E+03  0.00000000000E+00 0. -1.
<scales pt_clust_1="13000.00000" pt_clust_2="13000.00000" pt_clust_3="109.01226"></scales>
<clustering>
<clus scale="  109.012">  1  5  2 -1</clus>
<clus scale="  392.495">  2  3  1 -1</clus>
<clus scale="  392.495">  1  3  2 -1</clus>
</clustering>
</event>
<event>
 4   0  0.3464723E-02  0.3564972E+03  0.7816531E-02  0.1059979E+00
       21   -1    0    0  501  502  0.00000000000E+00  0.00000000000E+00  0.10182151082E+03  0.10182151082E+03  0.00000000000E+00 0. -1.
       21   -1    0    0  502  503  0.00000000000E+00  0.00000000000E+00 -0.13199599849E+04  0.13199599849E+04  0.00000000000E+00 0. -1.
  1000006    1    1    2  501    0  0.60956943141E+02  0.29571836590E+02 -0.44327718765E+03  0.56884524040E+03  0.35000000000E+03 0.  0.
 -1000006    1    1    2    0  503 -0.60956943141E+02 -0.29571836590E+02 -0.77486128639E+03  0.85293625528E+03  0.35000000000E+03 0.  0.
<scales pt_clust_1="13000.00000" pt_clust_2="13000.00000"></scales>
<clustering>
<clus scale="  356.497">  1  3  2 -1</clus>
<clus scale="  356.497">  1  3  2 -1</clus>
</clustering>
</event>
<event>
 4   0  0.3464723E-02  0.4358051E+03  0.7816531E-02  0.1032042E+00
       -2   -1    0    0    0  501  0.00000000000E+00  0.00000000000E+00  0.32651779595E+03  0.32651779595E+03  0.00000000000E+00 0. -1.
        2   -1    0    0  502    0  0.00000000000E+00  0.00000000000E+00 -0.83139761949E+03  0.83139761949E+03  0.00000000000E+00 0.  1.
  1000006    1    1    2  502    0 -0.25786488220E+03  0.30524955115E+02  0.64863326828E+02  0.44060563038E+03  0.35000000000E+03 0.  0.
 -1000006    1    1    2    0  501  0.25786488220E+03 -0.30524955115E+02 -0.56974315037E+03  0.71730978506E+03  0.35000000000E+03 0.  0.
<scales pt_clust_1="13000.00000" pt_clust_2="13000.00000"></scales>
<clustering>
<clus scale="  847.564">  3  4 -1 -1</clus>
<clus scale="  435.805">  2  3  1 -1</clus>
</clustering>
</event>
<event>
 6   2  0.3464723E-02  0.7375133E+03  0.7816531E-02  0.9655146E-01
       21   -1    0    0  501  503  0.00000000000E+00  0.00000000000E+00  0.20754218850E+04  0.20754218850E+04  0.00000000000E+00 0. -1.
        1   -1    0    0  504    0  0.00000000000E+00  0.00000000000E+00 -0.77789298324E+03  0.77789298324E+03  0.00000000000E+00 0.  1.
  1000006    1    1    2  501    0 -0.44263370550E+03 -0.40244933208E+03  0.10427061286E+04  0.12520487741E+04  0.35000000000E+03 0.  0.
 -1000006    1    1    2    0  502  0.66521063836E+03  0.38478552400E+03  0.57745192863E+03  0.10229935595E+04  0.35000000000E+03 0.  0.
       21    1    1    2  504  503 -0.32134561424E+02 -0.18533154107E+03 -0.19862694450E+03  0.27355634381E+03  0.00000000000E+00 0. -1.
        1    1    1    2  502    0 -0.19044237143E+03  0.20299534916E+03 -0.12400221098E+03  0.30471619082E+03  0.00000000000E+00 0.  1.
<scales pt_clust_1="13000.00000" pt_clust_2="13000.00000" pt_clust_3="188.09681" pt_clust_4="241.01213"></scales>
<clustering>
<clus scale="  188.097">  2  5  1 -1</clus>
<clus scale="  241.012">  2  6  1 -1</clus>
<clus scale="  737.513">  1  3  2 -1</clus>
<clus scale="  737.513">  1  3  2 -1</clus>
</clustering>
</event>
<event>
 5   1  0.3464723E-02  0.6372438E+03  0.7816531E-02  0.9831014E-01
        2   -1    0    0  501    0  0.00000000000E+00  0.00000000000E+00  0.16153635471E+04  0.16153635471E+04  0.00000000000E+00 0. -1.
       21   -1    0    0  502  503  0.00000000000E+00  0.00000000000E+00 -0.35185208522E+03  0.35185208522E+03  0.00000000000E+00 0.  1.
  1000006    1    1    2  501    0 -0.27191542100E+03 -0.37896122597E+03  0.62891506071E+03  0.85766179847E+03  0.35000000000E+03 0.  0.
 -1000006    1    1    2    0  503  0.36667315926E+03  0.44591900808E+03  0.27029618183E+03  0.72722279489E+03  0.35000000000E+03 0.  0.
        2    1    1    2  502    0 -0.94757738260E+02 -0.66957782113E+02  0.36430021935E+03  0.38233103898E+03  0.00000000000E+00 0. -1.
<scales pt_clust_1="13000.00000" pt_clust_2="13000.00000" pt_clust_3="116.02747"></scales>
<clustering>
<clus scale="  116.027">  1  5  2 -1</clus>
<clus scale="  637.244">  1  3  2 -1</clus>
<clus scale="  637.244">  2  3  1 -1</clus>
</clustering>
</event>
<event>
 6   2  0.3464723E-02  0.1079635E+04  0.7816531E-02  0.9394124E-01
       21   -1    0    0  505  502  0.00000000000E+00  0.00000000000E+00  0.16457755063E+04  0.16457755063E+04  0.00000000000E+00 0.  1.
       21   -1    0    0  501  503  0.00000000000E+00  0.00000000000E+00 -0.19372139980E+04  0.19372139980E+04  0.00000000000E+00 0.  1.
  1000006    1    1    2  501    0  0.47389038813E+03 -0.79011318054E+03 -0.63527507295E+02  0.98761666764E+03  0.35000000000E+03 0.  0.
 -1000006    1    1    2    0  502 -0.35511736363E+03 -0.30371281119E+03  0.82062026284E+03  0.10071084497E+04  0.35000000000E+03 0.  0.
       21    1    1    2  504  503  0.28239198151E+02 -0.13039470442E+02 -0.15523259016E+03  0.15831815168E+03  0.00000000000E+00 0.  1.
       21    1    1    2  505  504 -0.14701222265E+03  0.11068654622E+04 -0.89329865711E+03  0.14299462353E+04  0.00000000000E+00 0.  1.
<scales pt_clust_1="13000.00000" pt_clust_2="13000.00000" pt_clust_3="31.10434" pt_clust_4="1021.32829"></scales>
<clustering>
<clus scale="   31.104">  2  5  1 -1</clus>
<clus scale="  583.281">  1  4  2 -1</clus>
<clus scale=" 1021.328">  2  6  1 -1</clus>
<clus scale=" 1079.635">  1  3  2 -1</clus>
</clustering>
</event>
<event>
 5   1  0.3464723E-02  0.4682101E+03  0.7816531E-02  0.1022427E+00
       21   -1    0    0  504  502  0.00000000000E+00  0.00000000000E+00  0.79350494512E+03  0.79350494512E+03  0.00000000000E+00 0.  1.
       21   -1    0    0  501  503  0.00000000000E+00  0.00000000000E+00 -0.73697403845E+03  0.73697403845E+03  0.00000000000E+00 0.  1.
  1000006    1    1    2  501    0 -0.34570088633E+03 -0.91136460377E+02 -0.36415834087E+03  0.61881035418E+03  0.35000000000E+03 0.  0.
 -1000006    1    1    2    0  502  0.24143328390E+03  0.27393165496E+02 -0.46643591626E+02  0.42862109226E+03  0.35000000000E+03 0.  0.
       21    1    1    2  504  503  0.10426760243E+03  0.63743294882E+02  0.46733283916E+03  0.48304753712E+03  0.00000000000E+00 0.  1.
<scales pt_clust_1="13000.00000" pt_clust_2="13000.00000" pt_clust_3="122.20859"></scales>
<clustering>
<clus scale="  122.209">  1  5  2 -1</clus>
<clus scale="  468.210">  2  3  1 -1</clus>
<clus scale="  468.210">  1  3  2 -1</clus>
</clustering>
</event>
<event>
 5   1  0.3464723E-02  0.5752779E+03  0.7816531E-02  0.9958067E-01
       21   -1    0    0  504  502  0.00000000000E+00  0.00000000000E+00  0.90183461101E+03  0.90183461101E+03  0.00000000000E+00 0. -1.
       21   -1    0    0  502  503  0.00000000000E+00  0.00000000000E+00 -0.42931232854E+03  0.42931232854E+03  0.00000000000E+00 0. -1.
  1000006    1    1    2  501    0 -0.14089301272E+03  0.40571863556E+03  0.32765336060E+03  0.64367319113E+03  0.35000000000E+03 0.  0.
 -1000006    1    1    2    0  503  0.14457893678E+03 -0.45236739565E+03  0.63167640847E+02  0.59332072310E+03  0.35000000000E+03 0.  0.
       21    1    1    2  504  501 -0.36859240670E+01  0.46648760093E+02  0.81701281028E+02  0.94153025316E+02  0.00000000000E+00 0. -1.
<scales pt_clust_1="13000.00000" pt_clust_2="13000.00000" pt_clust_3="46.79415"></scales>
<clustering>
<clus scale="   46.794">  1  5  2 -1</clus>
<clus scale="  575.278">  1  3  2 -1</clus>
<clus scale="  575.278">  1  3  2 -1</clus>
</clustering>
</event>
<event>
 4   0  0.3464723E-02  0.5402463E+03  0.7816531E-02  0.1003777E+00
       21   -1    0    0  501  502  0.00000000000E+00  0.00000000000E+00  0.10913654800E+04  0.10913654800E+04  0.00000000000E+00 0. -1.
       21   -1    0    0  502  503  0.00000000000E+00  0.00000000000E+00 -0.26845526775E+03  0.26845526775E+03  0.00000000000E+00 0.  1.
  1000006    1    1    2  501    0 -0.27328381923E+03 -0.30770434826E+03  0.45343277960E+03  0.70531361635E+03  0.35000000000E+03 0.  0.
 -1000006    1    1    2    0  503  0.27328381923E+03  0.30770434826E+03  0.36947743261E+03  0.65450713136E+03  0.35000000000E+03 0.  0.
<scales pt_clust_1="13000.00000" pt_clust_2="13000.00000"></scales>
<clustering>
<clus scale="  540.246">  1  3  2 -1</clus>
<clus scale="  540.246">  1  3  2 -1</clus>
</clustering>
</event>
<event>
 4   0  0.3464723E-02  0.4527984E+03  0.7816531E-02  0.1026891E+00
       21   -1    0    0  501  502  0.00000000000E+00  0.00000000000E+00  0.97295133421E+03  0.97295133421E+03  0.00000000000E+00 0.  1.
       21   -1    0    0  502  503  0.00000000000E+00  0.00000000000E+00 -0.22810426777E+03  0.22810426777E+03  0.00000000000E+00 0. -1.
  1000006    1    1    2  501    0 -0.17339181093E+03  0.22904507878E+03  0.53817857994E+03  0.70332250932E+03  0.35000000000E+03 0.  0.
 -1000006    1    1    2    0  503  0.17339181093E+03 -0.22904507878E+03  0.20666848651E+03  0.49773309266E+03  0.35000000000E+03 0.  0.
<scales pt_clust_1="13000.00000" pt_clust_2="13000.00000"></scales>
<clustering>
<clus scale="  452.798">  2  4  1 -1</clus>
<clus scale="  452.798">  1  3  2 -1</clus>
</clustering>
</event>
<event>
 4   0  0.3464723E-02  0.4240341E+03  0.7816531E-02  0.1035761E+00
       21   -1    0    0  503  502  0.00000000000E+00  0.00000000000E+00  0.46207797699E+03  0.46207797699E+03  0.00000000000E+00 0. -1.
       21   -1    0    0  501  503  0.00000000000E+00  0.00000000000E+00 -0.44255221901E+03  0.44255221901E+03  0.00000000000E+00 0. -1.
  1000006    1    1    2  501    0  0.13311155974E+03 -0.19896291295E+03 -0.14740013617E+03  0.44892285329E+03  0.35000000000E+03 0.  0.
 -1000006    1    1    2    0  502 -0.13311155974E+03  0.19896291295E+03  0.16692589415E+03  0.45570734271E+03  0.35000000000E+03 0.  0.
<scales pt_clust_1="13000.00000" pt_clust_2="13000.00000"></scales>
<clustering>
<clus scale="  424.034">  2  3  1 -1</clus>
<clus scale="  424.034">  1  3  2 -1</clus>
</clustering>
</event>
<event>
 5   1  0.3464723E-02  0.4401314E+03  0.7816531E-02  0.1030706E+00
       21   -1    0    0  501  503  0.00000000000E+00  0.00000000000E+00  0.28413595416E+03  0.28413595416E+03  0.00000000000E+00 0.  1.
        2   -1    0    0  503    0  0.00000000000E+00  0.00000000000E+00 -0.23735171862E+04  0.23735171862E+04  0.00000000000E+00 0.  1.
  1000006    1    1    2  501    0  0.24038023872E+03 -0.33140620745E+02  0.64978136068E+01  0.42593800194E+03  0.35000000000E+03 0.  0.
 -1000006    1    1    2    0  502 -0.43584221642E+03 -0.40048473441E+00 -0.13810351701E+04  0.14898713834E+04  0.35000000000E+03 0.  0.
        2    1    1    2  502    0  0.19546197770E+03  0.33541105480E+02 -0.71484387553E+03  0.74184375502E+03  0.00000000000E+00 0.  1.
<scales pt_clust_1="13000.00000" pt_clust_2="13000.00000" pt_clust_3="198.31891"></scales>
<clustering>
<clus scale="  198.319">  2  5  1 -1</clus>
<clus scale="  440.131">  1  3  2 -1</clus>
<clus scale="  440.131">  1  3  2 -1</clus>
</clustering>
</event>
<event>
 5   1  0.3464723E-02  0.4113106E+03  0.7816531E-02  0.1039932E+00
       21   -1    0    0  504  502  0.00000000000E+00  0.00000000000E+00  0.13183205372E+04  0.13183205372E+04  0.00000000000E+00 0.  1.
       21   -1    0    0  501  503  0.00000000000E+00  0.00000000000E+00 -0.32338938520E+03  0.32338938520E+03  0.00000000000E+00 0. -1.
  1000006    1    1    2  501    0 -0.41251345298E+01  0.23169049042E+03  0.13442389674E+02  0.41997404435E+03  0.35000000000E+03 0.  0.
 -1000006    1    1    2    0  502 -0.67258247654E+02 -0.18787906798E+03  0.22665828105E+03  0.46227285496E+03  0.35000000000E+03 0.  0.
       21    1    1    2  504  503  0.71383382184E+02 -0.43811422436E+02  0.75483048129E+03  0.75946302311E+03  0.00000000000E+00 0.  1.
<scales pt_clust_1="13000.00000" pt_clust_2="13000.00000" pt_clust_3="83.75576"></scales>
<clustering>
<clus scale="   83.756">  1  5  2 -1</clus>
<clus scale="  411.311">  1  4  2 -1</clus>
<clus scale="  411.311">  1  3  2 -1</clus>
</clustering>
</event>
<event>
 4   0  0.3464723E-02  0.3503145E+03  0.7816531E-02  0.1062486E+00
       21   -1    0    0  503  502  0.00000000000E+00  0.00000000000E+00  0.12671871429E+04  0.12671871429E+04  0.00000000000E+00 0. -1.
       21   -1    0    0  501  503  0.00000000000E+00  0.00000000000E+00 -0.11878803314E+03  0.11878803314E+03  0.00000000000E+00 0. -1.
  1000006    1    1    2  501    0 -0.33452296308E+01  0.14458372817E+02  0.27635382797E+03  0.44619689974E+03  0.35000000000E+03 0.  0.
 -1000006    1    1    2    0  502  0.33452296308E+01 -0.14458372817E+02  0.87204528181E+03  0.93977827632E+03  0.35000000000E+03 0.  0.
<scales pt_clust_1="13000.00000" pt_clust_2="13000.00000"></scales>
<clustering>
<clus scale="  350.314">  2  3  1 -1</clus>
<clus scale="  350.314">  1  3  2 -1</clus>
</clustering>
</event>
<event>
 5   1  0.3464723E-02  0.4262139E+03  0.7816531E-02  0.1035063E+00
       21   -1    0    0  501  503  0.00000000000E+00  0.00000000000E+00  0.14616032874E+04  0.14616032874E+04  0.00000000000E+00 0.  1.
       -3   -1    0    0    0  501  0.00000000000E+00  0.00000000000E+00 -0.30706646628E+03  0.30706646628E+03  0.00000000000E+00 0.  1.
  1000006    1    1    2  502    0 -0.21089225772E+03 -0.10629863477E+03  0.45300774749E+03  0.61926647205E+03  0.35000000000E+03 0.  0.
 -1000006    1    1    2    0  503  0.18261139149E+03  0.17274947318E+03  0.86737316726E+03  0.96851717180E+03  0.35000000000E+03 0.  0.
       -3    1    1    2    0  502  0.28280866225E+02 -0.66450838415E+02 -0.16584409366E+03  0.18088610981E+03  0.00000000000E+00 0.  1.
<scales pt_clust_1="13000.00000" pt_clust_2="13000.00000" pt_clust_3="72.21857"></scales>
<clustering>
<clus scale="   72.219">  2  5  1 -1</clus>
<clus scale="  426.214">  2  3  1 -1</clus>
<clus scale="  426.214">  1  3  2 -1</clus>
</clustering>
</event>
<event>
 6   2  0.3464723E-02  0.3583758E+03  0.7816531E-02  0.1059229E+00
       21   -1    0    0  501  502  0.00000000000E+00  0.00000000000E+00  0.14454706529E+04  0.14454706529E+04  0.00000000000E+00 0. -1.
       21   -1    0    0  505  503  0.00000000000E+00  0.00000000000E+00 -0.16387009586E+03  0.16387009586E+03  0.00000000000E+00 0. -1.
  1000006    1    1    2  501    0 -0.26032825057E+02 -0.72778235207E+02  0.42185365307E+03  0.55356560958E+03  0.35000000000E+03 0.  0.
 -1000006    1    1    2    0  503 -0.12247310716E+03  0.46099610278E+02  0.40142089164E+03  0.54841915383E+03  0.35000000000E+03 0.  0.
       21    1    1    2  504  502 -0.20682754669E+02 -0.26955536686E+02  0.12723135013E+03  0.13168976329E+03  0.00000000000E+00 0.  1.
       21    1    1    2  505  504  0.16918868689E+03  0.53634161615E+02  0.33109466218E+03  0.37566622205E+03  0.00000000000E+00 0. -1.
<scales pt_clust_1="13000.00000" pt_clust_2="13000.00000" pt_clust_3="33.97613" pt_clust_4="170.08514"></scales>
<clustering>
<clus scale="   33.976">  1  5  2 -1</clus>
<clus scale="  170.085">  1  6  2 -1</clus>
<clus scale="  358.376">  1  3  2 -1</clus>
<clus scale="  358.376">  1  3  2 -1</clus>
</clustering>
</event>
<event>
 5   1  0.3464723E-02  0.3544563E+03  0.7816531E-02  0.1060801E+00
       21   -1    0    0  501  502  0.00000000000E+00  0.00000000000E+00  0.28070580583E+03  0.28070580583E+03  0.00000000000E+00 0.  1.
       21   -1    0    0  504  503  0.00000000000E+00  0.00000000000E+00 -0.63535419345E+03  0.63535419345E+03  0.00000000000E+00 0.  1.
  1000006    1    1    2  501    0 -0.40299135216E+02 -0.84595459538E+02 -0.66516367379E+00  0.36232699943E+03  0.35000000000E+03 0.  0.
 -1000006    1    1    2    0  503 -0.33065442044E+00  0.42710242358E+02 -0.34743942012E+03  0.49501356020E+03  0.35000000000E+03 0.  0.
       21    1    1    2  504  502  0.40629789637E+02  0.41885217180E+02 -0.65438038263E+01  0.58719439649E+02  0.00000000000E+00 0.  1.
<scales pt_clust_1="13000.00000" pt_clust_2="13000.00000" pt_clust_3="58.35367"></scales>
<clustering>
<clus scale="   58.354">  1  5  2 -1</clus>
<clus scale="  354.456">  1  3  2 -1</clus>
<clus scale="  354.456">  1  3  2 -1</clus>
</clustering>
</event>
<event>
 5   1  0.3464723E-02  0.4316202E+03  0.7816531E-02  0.1033349E+00
       21   -1    0    0  501  502  0.00000000000E+00  0.00000000000E+00  0.60150135958E+03  0.60150135958E+03  0.00000000000E+00 0. -1.
       21   -1    0    0  504  503  0.00000000000E+00  0.00000000000E+00 -0.59868039440E+03  0.59868039440E+03  0.00000000000E+00 0. -1.
  1000006    1    1    2  501    0  0.25272090896E+03 -0.15721691230E+02 -0.12635360068E+03  0.45008917095E+03  0.35000000000E+03 0.  0.
 -1000006    1    1    2    0  503 -0.25240841766E+03 -0.20717141118E+02 -0.15845792652E+03  0.46016097588E+03  0.35000000000E+03 0.  0.
       21    1    1    2  504  502 -0.31249129155E+00  0.36438832348E+02  0.28763249238E+03  0.28993160715E+03  0.00000000000E+00 0. -1.
<scales pt_clust_1="13000.00000" pt_clust_2="13000.00000" pt_clust_3="36.44017"></scales>
<clustering>
<clus scale="   36.440">  1  5  2 -1</clus>
<clus scale="  431.620">  1  3  2 -1</clus>
<clus scale="  431.620">  1  3  2 -1</clus>
</clustering>
</event>
<event>
 5   1  0.3464723E-02  0.3735632E+03  0.7816531E-02  0.1053339E+00
       21   -1    0    0  501  502  0.00000000000E+00  0.00000000000E+00  0.70409897704E+03  0.70409897704E+03  0.00000000000E+00 0. -1.
       21   -1    0    0  504  503  0.00000000000E+00  0.00000000000E+00 -0.69851023928E+03  0.69851023928E+03  0.00000000000E+00 0. -1.
  1000006    1    1    2  501    0  0.28078670951E+02  0.22562905110E+03 -0.12332793605E+03  0.43520875482E+03  0.35000000000E+03 0.  0.
 -1000006    1    1    2    0  503  0.11435001430E+03 -0.51525522115E+02 -0.30352355300E+03  0.47995557339E+03  0.35000000000E+03 0.  0.
       21    1    1    2  504  502 -0.14242868525E+03 -0.17410352899E+03  0.43244022681E+03  0.48744488811E+03  0.00000000000E+00 0. -1.
<scales pt_clust_1="13000.00000" pt_clust_2="13000.00000" pt_clust_3="224.93992"></scales>
<clustering>
<clus scale="  224.940">  1  5  2 -1</clus>
<clus scale="  373.563">  1  3  2 -1</clus>
<clus scale="  373.563">  1  3  2 -1</clus>
</clustering>
</event>
<event>
 6   2  0.3464723E-02  0.3942211E+03  0.7816531E-02  0.1045799E+00
       21   -1    0    0  504  502  0.00000000000E+00  0.00000000000E+00  0.73028932525E+03  0.73028932525E+03  0.00000000000E+00 0.  1.
       21   -1    0    0  502  503  0.00000000000E+00  0.00000000000E+00 -0.15916117160E+04  0.15916117160E+04  0.00000000000E+00 0.  1.
  1000006    1    1    2  501    0 -0.89927925426E+01  0.18939230439E+03 -0.24806460825E+03  0.46902704095E+03  0.35000000000E+03 0.  0.
 -1000006    1    1    2    0  505 -0.88035856695E+02 -0.20522235115E+03 -0.10309218620E+04  0.11113804079E+04  0.35000000000E+03 0.  0.
       21    1    1    2  504  501  0.16810794922E+02 -0.28964889693E+02  0.56601007088E+03  0.56699997178E+03  0.00000000000E+00 0.  1.
       21    1    1    2  505  503  0.80217854316E+02  0.44794936460E+02 -0.14834599136E+03  0.17449362061E+03  0.00000000000E+00 0.  1.
<scales pt_clust_1="13000.00000" pt_clust_2="13000.00000" pt_clust_3="33.48981" pt_clust_4="91.96079"></scales>
<clustering>
<clus scale="   33.490">  1  5  2 -1</clus>
<clus scale="   91.961">  2  6  1 -1</clus>
<clus scale="  394.221">  2  4  1 -1</clus>
<clus scale="  394.221">  1  3  2 -1</clus>
</clustering>
</event>
<event>
 6   2  0.3464723E-02  0.4372783E+03  0.7816531E-02  0.1031585E+00
       21   -1    0    0  502  503  0.00000000000E+00  0.00000000000E+00  0.18438460575E+03  0.18438460575E+03  0.00000000000E+00 0.  1.
        4   -1    0    0  504    0  0.00000000000E+00  0.00000000000E+00 -0.17802187897E+04  0.17802187897E+04  0.00000000000E+00 0. -1.
  1000006    1    1    2  501    0  0.22689579968E+02  0.25947598795E+03 -0.63311973750E+03  0.76888439142E+03  0.35000000000E+03 0.  0.
 -1000006    1    1    2    0  503 -0.59569066703E+02 -0.25731310661E+03 -0.31431542074E+03  0.53949299556E+03  0.35000000000E+03 0.  0.
       21    1    1    2  504  501 -0.14608201678E+02 -0.31933480468E+02 -0.13901868656E+03  0.14338529193E+03  0.00000000000E+00 0. -1.
        4    1    1    2  502    0  0.51487688413E+02  0.29770599128E+02 -0.50938033919E+03  0.51284071659E+03  0.00000000000E+00 0. -1.
<scales pt_clust_1="13000.00000" pt_clust_2="13000.00000" pt_clust_3="35.11619" pt_clust_4="50.94283"></scales>
<clustering>
<clus scale="   35.116">  2  5  1 -1</clus>
<clus scale="   50.943">  2  6  1 -1</clus>
<clus scale="  437.278">  2  3  1 -1</clus>
<clus scale="  437.278">  1  3  2 -1</clus>
</clustering>
</event>
<event>
 5   1  0.3464723E-02  0.5268636E+03  0.7816531E-02  0.1006996E+00
       21   -1    0    0  503  502  0.00000000000E+00  0.00000000000E+00  0.11494246185E+04  0.11494246185E+04  0.00000000000E+00 0. -1.
       21   -1    0    0  504  503  0.00000000000E+00  0.00000000000E+00 -0.27138544851E+03  0.27138544851E+03  0.00000000000E+00 0.  1.
  1000006    1    1    2  501    0  0.13156125797E+03  0.37712892856E+03  0.38414232376E+03  0.65543872197E+03  0.35000000000E+03 0.  0.
 -1000006    1    1    2    0  502 -0.16211542663E+03 -0.35466935672E+03  0.50302766762E+03  0.72636671078E+03  0.35000000000E+03 0.  0.
       21    1    1    2  504  501  0.30554168662E+02 -0.22459571846E+02 -0.91308214350E+01  0.39004634214E+02  0.00000000000E+00 0. -1.
<scales pt_clust_1="13000.00000" pt_clust_2="13000.00000" pt_clust_3="37.92083"></scales>
<clustering>
<clus scale="   37.921">  2  5  1 -1</clus>
<clus scale="  526.864">  2  3  1 -1</clus>
<clus scale="  526.864">  1  3  2 -1</clus>
</clustering>
</event>
<event>
 6   2  0.3464723E-02  0.3675927E+03  0.7816531E-02  0.1055617E+00
       21   -1    0    0  501  503  0.00000000000E+00  0.00000000000E+00  0.54612213284E+03  0.54612213284E+03  0.00000000000E+00 0. -1.
        2   -1    0    0  503    0  0.00000000000E+00  0.00000000000E+00 -0.91359276646E+03  0.91359276646E+03  0.00000000000E+00 0. -1.
  1000006    1    1    2  501    0 -0.82836366906E+02 -0.73187188760E+02  0.29499324575E+03  0.47089196566E+03  0.35000000000E+03 0.  0.
 -1000006    1    1    2    0  504  0.94435536641E+02  0.69429031296E+02 -0.62272812503E+02  0.37432120451E+03  0.35000000000E+03 0.  0.
       21    1    1    2  504  502 -0.75576750705E+01  0.43084601477E+02 -0.68063298238E+02  0.80907440349E+02  0.00000000000E+00 0.  1.
        2    1    1    2  502    0 -0.40414946642E+01 -0.39326444012E+02 -0.53212776863E+03  0.53359428878E+03  0.00000000000E+00 0. -1.
<scales pt_clust_1="13000.00000" pt_clust_2="13000.00000" pt_clust_3="36.36219" pt_clust_4="39.53357"></scales>
<clustering>
<clus scale="   39.534">  2  6  1 -1</clus>
<clus scale="   36.362">  2  5  1 -1</clus>
<clus scale="  367.593">  2  4  1 -1</clus>
<clus scale="  367.593">  1  3  2 -1</clus>
</clustering>
</event>
<event>
 6   2  0.3464723E-02  0.3884558E+03  0.7816531E-02  0.1047852E+00
       21   -1    0    0  504  503  0.00000000000E+00  0.00000000000E+00  0.43790949590E+03  0.43790949590E+03  0.00000000000E+00 0.  1.
        2   -1    0    0  501    0  0.00000000000E+00  0.00000000000E+00 -0.10568120073E+04  0.10568120073E+04  0.00000000000E+00 0.  1.
  1000006    1    1    2  501    0  0.15902002231E+03  0.14249653523E+03 -0.11266209421E+03  0.42518863757E+03  0.35000000000E+03 0.  0.
 -1000006    1    1    2    0  503 -0.11013780901E+03 -0.94649111996E+02  0.11844577446E+03  0.39701157774E+03  0.35000000000E+03 0.  0.
       21    1    1    2  504  502 -0.10384701920E+03 -0.36852410568E+00 -0.10462769314E+03  0.14741537701E+03  0.00000000000E+00 0.  1.
        2    1    1    2  502    0  0.54964805904E+02 -0.47478899125E+02 -0.52005849853E+03  0.52510591088E+03  0.00000000000E+00 0.  1.
<scales pt_clust_1="13000.00000" pt_clust_2="13000.00000" pt_clust_3="91.61449" pt_clust_4="72.63178"></scales>
<clustering>
<clus scale="   72.632">  2  6  1 -1</clus>
<clus scale="   91.614">  2  5  1 -1</clus>
<clus scale="  388.456">  2  3  1 -1</clus>
<clus scale="  388.456">  1  3  2 -1</clus>
</clustering>
</event>
<event>
 6   2  0.3464723E-02  0.3692137E+03  0.7816531E-02  0.1054994E+00
        2   -1    0    0  504    0  0.00000000000E+00  0.00000000000E+00  0.32258489037E+04  0.32258489037E+04  0.00000000000E+00 0.  1.
       21   -1    0    0  502  503  0.00000000000E+00  0.00000000000E+00 -0.55129985461E+03  0.55129985461E+03  0.00000000000E+00 0.  1.
  1000006    1    1    2  501    0 -0.27087362281E+03  0.17234594551E+02 -0.26400670718E+02  0.44369645727E+03  0.35000000000E+03 0.  0.
 -1000006    1    1    2    0  503  0.26451794396E+02 -0.63275165964E+02 -0.20535620597E+03  0.41155147355E+03  0.35000000000E+03 0.  0.
       21    1    1    2  504  501  0.54387790534E+01  0.31557411198E+02  0.91706642371E+02  0.97136804426E+02  0.00000000000E+00 0. -1.
        2    1    1    2  502    0  0.23898304936E+03  0.14483160215E+02  0.28145992834E+04  0.28247640231E+04  0.00000000000E+00 0.  1.
<scales pt_clust_1="13000.00000" pt_clust_2="13000.00000" pt_clust_3="32.02266" pt_clust_4="247.62463"></scales>
<clustering>
<clus scale="   32.023">  1  5  2 -1</clus>
<clus scale="  247.625">  1  6  2 -1</clus>
<clus scale="  369.214">  1  3  2 -1</clus>
<clus scale="  369.214">  2  3  1 -1</clus>
</clustering>
</event>
<event>
 5   1  0.3464723E-02  0.4044100E+03  0.7816531E-02  0.1042263E+00
       21   -1    0    0  502  503  0.00000000000E+00  0.00000000000E+00  0.77129840890E+02  0.77129840890E+02  0.00000000000E+00 0. -1.
        2   -1    0    0  501    0  0.00000000000E+00  0.00000000000E+00 -0.24825450412E+04  0.24825450412E+04  0.00000000000E+00 0. -1.
  1000006    1    1    2  501    0 -0.21214049102E+02  0.22156266365E+03 -0.13788709513E+04  0.14399045629E+04  0.35000000000E+03 0.  0.
 -1000006    1    1    2    0  503  0.33136241377E+02 -0.18742020315E+03 -0.83920245224E+03  0.92896991280E+03  0.35000000000E+03 0.  0.
        2    1    1    2  502    0 -0.11922192276E+02 -0.34142460505E+02 -0.18734179675E+03  0.19080040641E+03  0.00000000000E+00 0. -1.
<scales pt_clust_1="13000.00000" pt_clust_2="13000.00000" pt_clust_3="36.16416"></scales>
<clustering>
<clus scale="   36.164">  2  5  1 -1</clus>
<clus scale="  404.410">  2  3  1 -1</clus>
<clus scale="  404.410">  1  3  2 -1</clus>
</clustering>
</event>
<event>
 5   1  0.3464723E-02  0.3551494E+03  0.7816531E-02  0.1060521E+00
       21   -1    0    0  504  502  0.00000000000E+00  0.00000000000E+00  0.52748197380E+03  0.52748197380E+03  0.00000000000E+00 0.  1.
       21   -1    0    0  501  503  0.00000000000E+00  0.00000000000E+00 -0.49016676259E+03  0.49016676259E+03  0.00000000000E+00 0.  1.
  1000006    1    1    2  501    0 -0.20207199408E+02  0.88153102095E+01 -0.19144411436E+03  0.39954585410E+03  0.35000000000E+03 0.  0.
 -1000006    1    1    2    0  502  0.54784730849E+02 -0.44042668424E+02  0.34212305674E+03  0.49445860224E+03  0.35000000000E+03 0.  0.
       21    1    1    2  504  503 -0.34577531441E+02  0.35227358215E+02 -0.11336373117E+03  0.12364428006E+03  0.00000000000E+00 0.  1.
<scales pt_clust_1="13000.00000" pt_clust_2="13000.00000" pt_clust_3="49.36165"></scales>
<clustering>
<clus scale="   49.362">  2  5  1 -1</clus>
<clus scale="  355.149">  2  3  1 -1</clus>
<clus scale="  355.149">  1  3  2 -1</clus>
</clustering>
</event>
<event>
 6   2  0.3464723E-02  0.3536448E+03  0.7816531E-02  0.1061129E+00
       21   -1    0    0  505  502  0.00000000000E+00  0.00000000000E+00  0.32704115548E+03  0.32704115548E+03  0.00000000000E+00 0.  1.
       21   -1    0    0  504  503  0.00000000000E+00  0.00000000000E+00 -0.51811287148E+03  0.51811287148E+03  0.00000000000E+00 0.  1.
  1000006    1    1    2  501    0  0.54190670417E+02 -0.47838857533E+02 -0.15968925023E+03  0.39144072564E+03  0.35000000000E+03 0.  0.
 -1000006    1    1    2    0  502 -0.37029896899E+02 -0.13805361029E+02 -0.26231113486E+01  0.35223384558E+03  0.35000000000E+03 0.  0.
       21    1    1    2  504  501  0.37609833347E+01  0.35384828770E+02 -0.50281105138E+02  0.61598868793E+02  0.00000000000E+00 0.  1.
       21    1    1    2  505  503 -0.20921756852E+02  0.26259389792E+02  0.21521750711E+02  0.39880586953E+02  0.00000000000E+00 0.  1.
<scales pt_clust_1="13000.00000" pt_clust_2="13000.00000" pt_clust_3="36.04337" pt_clust_4="33.57492"></scales>
<clustering>
<clus scale="   33.575">  1  6  2 -1</clus>
<clus scale="   36.043">  2  5  1 -1</clus>
<clus scale="  353.645">  1  4  2 -1</clus>
<clus scale="  353.645">  1  3  2 -1</clus>
</clustering>
</event>
<event>
 5   1  0.3464723E-02  0.4687413E+03  0.7816531E-02  0.1022276E+00
       21   -1    0    0  504  502  0.00000000000E+00  0.00000000000E+00  0.15601442398E+03  0.15601442398E+03  0.00000000000E+00 0.  1.
       21   -1    0    0  502  503  0.00000000000E+00  0.00000000000E+00 -0.44172225123E+04  0.44172225123E+04  0.00000000000E+00 0.  1.
  1000006    1    1    2  501    0  0.83962211575E+02 -0.29775144474E+03 -0.37151878481E+03  0.59685155884E+03  0.35000000000E+03 0.  0.
 -1000006    1    1    2    0  503 -0.54662265636E+02  0.30744751739E+03 -0.39109059050E+04  0.39389334771E+04  0.35000000000E+03 0.  0.
       21    1    1    2  504  501 -0.29299945939E+02 -0.96960726574E+01  0.21216601531E+02  0.37451900319E+02  0.00000000000E+00 0.  1.
<scales pt_clust_1="13000.00000" pt_clust_2="13000.00000" pt_clust_3="30.86261"></scales>
<clustering>
<clus scale="   30.863">  1  5  2 -1</clus>
<clus scale="  468.741">  1  3  2 -1</clus>
<clus scale="  468.741">  1  3  2 -1</clus>
</clustering>
</event>
<event>
 5   1  0.3464723E-02  0.4755760E+03  0.7816531E-02  0.1020358E+00
       21   -1    0    0  502  503  0.00000000000E+00  0.00000000000E+00  0.35994649041E+03  0.35994649041E+03  0.00000000000E+00 0. -1.
        2   -1    0    0  501    0  0.00000000000E+00  0.00000000000E+00 -0.31505393281E+04  0.31505393281E+04  0.00000000000E+00 0.  1.
  1000006    1    1    2  501    0 -0.81229094942E+02 -0.32176326268E+03 -0.66878360826E+03  0.82456126379E+03  0.35000000000E+03 0.  0.
 -1000006    1    1    2    0  503  0.11593968004E+03  0.29812379077E+03  0.82448659492E+02  0.48126664697E+03  0.35000000000E+03 0.  0.
        2    1    1    2  502    0 -0.34710585101E+02  0.23639471907E+02 -0.22042578889E+04  0.22046579078E+04  0.00000000000E+00 0.  1.
<scales pt_clust_1="13000.00000" pt_clust_2="13000.00000" pt_clust_3="41.99583"></scales>
<clustering>
<clus scale="   41.996">  2  5  1 -1</clus>
<clus scale="  475.576">  2  3  1 -1</clus>
<clus scale="  475.576">  1  3  2 -1</clus>
</clustering>
</event>
<event>
 4   0  0.3464723E-02  0.3709304E+03  0.7816531E-02  0.1054338E+00
       21   -1    0    0  501  502  0.00000000000E+00  0.00000000000E+00  0.23902494020E+03  0.23902494020E+03  0.00000000000E+00 0.  1.
       21   -1    0    0  502  503  0.00000000000E+00  0.00000000000E+00 -0.60971381246E+03  0.60971381246E+03  0.00000000000E+00 0.  1.
  1000006    1    1    2  501    0 -0.42238287648E+00  0.12283813964E+03 -0.85005502996E+02  0.38054608459E+03  0.35000000000E+03 0.  0.
 -1000006    1    1    2    0  503  0.42238287648E+00 -0.12283813964E+03 -0.28568336926E+03  0.46819266806E+03  0.35000000000E+03 0.  0.
<scales pt_clust_1="13000.00000" pt_clust_2="13000.00000"></scales>
<clustering>
<clus scale="  370.930">  1  3  2 -1</clus>
<clus scale="  370.930">  1  3  2 -1</clus>
</clustering>
</event>
<event>
 4   0  0.3464723E-02  0.5082388E+03  0.7816531E-02  0.1011651E+00
       -2   -1    0    0    0  501  0.00000000000E+00  0.00000000000E+00  0.60584304348E+03  0.60584304348E+03  0.00000000000E+00 0. -1.
        2   -1    0    0  502    0  0.00000000000E+00  0.00000000000E+00 -0.45076145817E+03  0.45076145817E+03  0.00000000000E+00 0.  1.
  1000006    1    1    2  502    0  0.26580368554E+03 -0.25525496772E+03  0.20046146511E+03  0.54634375332E+03  0.35000000000E+03 0.  0.
 -1000006    1    1    2    0  501 -0.26580368554E+03  0.25525496772E+03 -0.45379879803E+02  0.51026074833E+03  0.35000000000E+03 0.  0.
<scales pt_clust_1="13000.00000" pt_clust_2="13000.00000"></scales>
<clustering>
<clus scale="  851.389">  3  4 -1 -1</clus>
<clus scale="  508.239">  2  3  1 -1</clus>
</clustering>
</event>
<event>
 5   1  0.3464723E-02  0.4079132E+03  0.7816531E-02  0.1041074E+00
        1   -1    0    0  503    0  0.00000000000E+00  0.00000000000E+00  0.53093727730E+03  0.53093727730E+03  0.00000000000E+00 0. -1.
       21   -1    0    0  501  503  0.00000000000E+00  0.00000000000E+00 -0.46030910007E+03  0.46030910007E+03  0.00000000000E+00 0. -1.
  1000006    1    1    2  501    0 -0.16060668737E+03  0.10218526267E+03 -0.92686429655E+02  0.40905636552E+03  0.35000000000E+03 0.  0.
 -1000006    1    1    2    0  502  0.21156911357E+03 -0.10564894030E+03  0.12093382499E+02  0.42257477244E+03  0.35000000000E+03 0.  0.
        1    1    1    2  502    0 -0.50962426206E+02  0.34636776295E+01  0.15122122438E+03  0.15961523940E+03  0.00000000000E+00 0. -1.
<scales pt_clust_1="13000.00000" pt_clust_2="13000.00000" pt_clust_3="51.08000"></scales>
<clustering>
<clus scale="   51.080">  1  5  2 -1</clus>
<clus scale="  407.913">  2  3  1 -1</clus>
<clus scale="  407.913">  2  3  1 -1</clus>
</clustering>
</event>
<event>
 5   1  0.3464723E-02  0.3942749E+03  0.7816531E-02  0.1045780E+00
       21   -1    0    0  503  502  0.00000000000E+00  0.00000000000E+00  0.15875320624E+03  0.15875320624E+03  0.00000000000E+00 0. -1.
       21   -1    0    0  504  503  0.00000000000E+00  0.00000000000E+00 -0.14775749311E+04  0.14775749311E+04  0.00000000000E+00 0. -1.
  1000006    1    1    2  501    0  0.20962797266E+03  0.95938351594E+02 -0.54312283728E+03  0.68602512388E+03  0.35000000000E+03 0.  0.
 -1000006    1    1    2    0  502 -0.14386752707E+03 -0.35035650855E+02 -0.35461518509E+03  0.51978581327E+03  0.35000000000E+03 0.  0.
       21    1    1    2  504  501 -0.65760445583E+02 -0.60902700739E+02 -0.42108370254E+03  0.43051720024E+03  0.00000000000E+00 0. -1.
<scales pt_clust_1="13000.00000" pt_clust_2="13000.00000" pt_clust_3="89.63021"></scales>
<clustering>
<clus scale="   89.630">  2  5  1 -1</clus>
<clus scale="  394.275">  2  3  1 -1</clus>
<clus scale="  394.275">  1  3  2 -1</clus>
</clustering>
</event>
<event>
 6   2  0.3464723E-02  0.4017226E+03  0.7816531E-02  0.1043185E+00
       21   -1    0    0  502  503  0.00000000000E+00  0.00000000000E+00  0.15532329804E+04  0.15532329804E+04  0.00000000000E+00 0.  1.
        2   -1    0    0  501    0  0.00000000000E+00  0.00000000000E+00 -0.50093769224E+03  0.50093769224E+03  0.00000000000E+00 0.  1.
  1000006    1    1    2  501    0 -0.70082090418E+02 -0.17740894137E+03  0.36677994985E+03  0.54167606878E+03  0.35000000000E+03 0.  0.
 -1000006    1    1    2    0  504  0.12373664750E+03  0.16173862606E+03  0.51642779049E+03  0.65625285058E+03  0.35000000000E+03 0.  0.
       21    1    1    2  504  503 -0.24762370355E+02  0.26849750045E+02  0.51131352845E+03  0.51261643403E+03  0.00000000000E+00 0.  1.
        2    1    1    2  502    0 -0.28892186728E+02 -0.11179434733E+02 -0.34222598063E+03  0.34362531926E+03  0.00000000000E+00 0.  1.
<scales pt_clust_1="13000.00000" pt_clust_2="13000.00000" pt_clust_3="36.57218" pt_clust_4="30.97964"></scales>
<clustering>
<clus scale="   30.980">  2  6  1 -1</clus>
<clus scale="   36.572">  1  5  2 -1</clus>
<clus scale="  401.723">  2  3  1 -1</clus>
<clus scale="  401.723">  1  3  2 -1</clus>
</clustering>
</event>
<event>
 5   1  0.3464723E-02  0.3634236E+03  0.7816531E-02  0.1057236E+00
       21   -1    0    0  502  503  0.00000000000E+00  0.00000000000E+00  0.19024954822E+03  0.19024954822E+03  0.00000000000E+00 0. -1.
        2   -1    0    0  501    0  0.00000000000E+00  0.00000000000E+00 -0.99340138302E+03  0.99340138302E+03  0.00000000000E+00 0. -1.
  1000006    1    1    2  501    0 -0.48977699564E+02  0.11921049230E+03 -0.40919264165E+03  0.55366828924E+03  0.35000000000E+03 0.  0.
 -1000006    1    1    2    0  503  0.52923582617E+02 -0.62151763333E+02 -0.16767794401E+03  0.39658497222E+03  0.35000000000E+03 0.  0.
        2    1    1    2  502    0 -0.39458830534E+01 -0.57058728967E+02 -0.22628124914E+03  0.23339766977E+03  0.00000000000E+00 0. -1.
<scales pt_clust_1="13000.00000" pt_clust_2="13000.00000" pt_clust_3="57.19500"></scales>
<clustering>
<clus scale="   57.195">  2  5  1 -1</clus>
<clus scale="  363.424">  2  3  1 -1</clus>
<clus scale="  363.424">  1  3  2 -1</clus>
</clustering>
</event>
<event>
 5   1  0.3464723E-02  0.3664181E+03  0.7816531E-02  0.1056071E+00
       21   -1    0    0  501  502  0.00000000000E+00  0.00000000000E+00  0.22869699903E+03  0.22869699903E+03  0.00000000000E+00 0. -1.
       21   -1    0    0  502  503  0.00000000000E+00  0.00000000000E+00 -0.72359609139E+03  0.72359609139E+03  0.00000000000E+00 0. -1.
  1000006    1    1    2  501    0 -0.10704269454E+03 -0.70111877343E+02 -0.11190992242E+03  0.38909850236E+03  0.35000000000E+03 0.  0.
 -1000006    1    1    2    0  504  0.70034079826E+02  0.35122034075E+02 -0.30924464578E+03  0.47357214926E+03  0.35000000000E+03 0.  0.
       21    1    1    2  504  503  0.37008614713E+02  0.34989843268E+02 -0.73744524155E+02  0.89622438807E+02  0.00000000000E+00 0. -1.
<scales pt_clust_1="13000.00000" pt_clust_2="13000.00000" pt_clust_3="50.93061"></scales>
<clustering>
<clus scale="   50.931">  2  5  1 -1</clus>
<clus scale="  366.418">  1  3  2 -1</clus>
<clus scale="  366.418">  1  3  2 -1</clus>
</clustering>
</event>
<event>
 4   0  0.3464723E-02  0.4558121E+03  0.7816531E-02  0.1026003E+00
       21   -1    0    0  503  502  0.00000000000E+00  0.00000000000E+00  0.68198202710E+03  0.68198202710E+03  0.00000000000E+00 0. -1.
       21   -1    0    0  501  503  0.00000000000E+00  0.00000000000E+00 -0.30492490759E+03  0.30492490759E+03  0.00000000000E+00 0. -1.
  1000006    1    1    2  501    0  0.45282471397E+02  0.28846870676E+03  0.17366765739E+03  0.48777571918E+03  0.35000000000E+03 0.  0.
 -1000006    1    1    2    0  502 -0.45282471397E+02 -0.28846870676E+03  0.20338946212E+03  0.49913121551E+03  0.35000000000E+03 0.  0.
<scales pt_clust_1="13000.00000" pt_clust_2="13000.00000"></scales>
<clustering>
<clus scale="  455.812">  2  3  1 -1</clus>
<clus scale="  455.812">  1  3  2 -1</clus>
</clustering>
</event>
<event>
 6   2  0.3464723E-02  0.5820844E+03  0.7816531E-02  0.9943289E-01
       21   -1    0    0  504  503  0.00000000000E+00  0.00000000000E+00  0.11827943573E+04  0.11827943573E+04  0.00000000000E+00 0.  1.
        2   -1    0    0  503    0  0.00000000000E+00  0.00000000000E+00 -0.14114527366E+04  0.14114527366E+04  0.00000000000E+00 0. -1.
  1000006    1    1    2  501    0  0.16176001806E+03 -0.32059829367E+03  0.52470599885E+03  0.72578643869E+03  0.35000000000E+03 0.  0.
 -1000006    1    1    2    0  502 -0.30129521332E+03  0.39429940201E+03 -0.90931551446E+01  0.60731664679E+03  0.35000000000E+03 0.  0.
       21    1    1    2  504  501  0.23313873043E+03 -0.72623213420E+02  0.19791330217E+03  0.31432065464E+03  0.00000000000E+00 0. -1.
        2    1    1    2  502    0 -0.93603535174E+02 -0.10778949182E+01 -0.94218452521E+03  0.94682335375E+03  0.00000000000E+00 0. -1.
<scales pt_clust_1="13000.00000" pt_clust_2="13000.00000" pt_clust_3="233.11633" pt_clust_4="93.60974"></scales>
<clustering>
<clus scale="   93.610">  2  6  1 -1</clus>
<clus scale="  233.116">  1  5  2 -1</clus>
<clus scale="  582.084">  1  3  2 -1</clus>
<clus scale="  582.084">  1  3  2 -1</clus>
</clustering>
</event>
<event>
 6   2  0.3464723E-02  0.3729398E+03  0.7816531E-02  0.1053575E+00
       21   -1    0    0  504  502  0.00000000000E+00  0.00000000000E+00  0.55985696268E+03  0.55985696268E+03  0.00000000000E+00 0.  1.
       21   -1    0    0  502  503  0.00000000000E+00  0.00000000000E+00 -0.76734004213E+03  0.76734004213E+03  0.00000000000E+00 0.  1.
  1000006    1    1    2  501    0  0.12597721363E+03  0.60092630198E+02  0.82586663421E+02  0.38574854443E+03  0.35000000000E+03 0.  0.
 -1000006    1    1    2    0  505 -0.12390046013E+03  0.19000153575E+02  0.24399304989E+02  0.37256899487E+03  0.35000000000E+03 0.  0.
       21    1    1    2  504  501  0.40088223965E+02 -0.53033406536E+02  0.11700230851E+03  0.13457023485E+03  0.00000000000E+00 0.  1.
       21    1    1    2  505  503 -0.42164977471E+02 -0.26059377236E+02 -0.43147135638E+03  0.43430923066E+03  0.00000000000E+00 0.  1.
<scales pt_clust_1="13000.00000" pt_clust_2="13000.00000" pt_clust_3="66.37099" pt_clust_4="49.56790"></scales>
<clustering>
<clus scale="   49.568">  2  6  1 -1</clus>
<clus scale="   66.371">  1  5  2 -1</clus>
<clus scale="  372.940">  1  3  2 -1</clus>
<clus scale="  372.940">  1  3  2 -1</clus>
</clustering>
</event>
<event>
 5   1  0.3464723E-02  0.3998985E+03  0.7816531E-02  0.1043815E+00
       21   -1    0    0  501  502  0.00000000000E+00  0.00000000000E+00  0.12802917190E+04  0.12802917190E+04  0.00000000000E+00 0. -1.
       21   -1    0    0  504  503  0.00000000000E+00  0.00000000000E+00 -0.18615790599E+03  0.18615790599E+03  0.00000000000E+00 0. -1.
  1000006    1    1    2  501    0  0.17782004722E+03  0.37971336854E+02  0.85215670107E+03  0.93900630178E+03  0.35000000000E+03 0.  0.
 -1000006    1    1    2    0  503 -0.22537750443E+03 -0.26216063372E+02  0.23254192752E+03  0.47755423727E+03  0.35000000000E+03 0.  0.
       21    1    1    2  504  502  0.47557457212E+02 -0.11755273482E+02  0.94351844341E+01  0.49889085945E+02  0.00000000000E+00 0. -1.
<scales pt_clust_1="13000.00000" pt_clust_2="13000.00000" pt_clust_3="48.98876"></scales>
<clustering>
<clus scale="   48.989">  2  5  1 -1</clus>
<clus scale="  399.899">  2  4  1 -1</clus>
<clus scale="  399.899">  1  3  2 -1</clus>
</clustering>
</event>
<event>
 5   1  0.3464723E-02  0.4472094E+03  0.7816531E-02  0.1028557E+00
       21   -1    0    0  501  502  0.00000000000E+00  0.00000000000E+00  0.27472080959E+03  0.27472080959E+03  0.00000000000E+00 0.  1.
       21   -1    0    0  504  503  0.00000000000E+00  0.00000000000E+00 -0.92699345247E+03  0.92699345247E+03  0.00000000000E+00 0. -1.
  1000006    1    1    2  501    0  0.16733045457E+01  0.32625862245E+03 -0.26280731824E+03  0.54590766178E+03  0.35000000000E+03 0.  0.
 -1000006    1    1    2    0  503 -0.81502213004E+01 -0.24601671673E+03 -0.38430975789E+03  0.57513880153E+03  0.35000000000E+03 0.  0.
       21    1    1    2  504  502  0.64769167548E+01 -0.80241905722E+02 -0.51555667531E+01  0.80667798737E+02  0.00000000000E+00 0. -1.
<scales pt_clust_1="13000.00000" pt_clust_2="13000.00000" pt_clust_3="80.50288"></scales>
<clustering>
<clus scale="   80.503">  1  5  2 -1</clus>
<clus scale="  447.209">  2  4  1 -1</clus>
<clus scale="  447.209">  1  3  2 -1</clus>
</clustering>
</event>
<event>
 4   0  0.3464723E-02  0.3784899E+03  0.7816531E-02  0.1051493E+00
       21   -1    0    0  501  502  0.00000000000E+00  0.00000000000E+00  0.61157985125E+02  0.61157985125E+02  0.00000000000E+00 0. -1.
       21   -1    0    0  502  503  0.00000000000E+00  0.00000000000E+00 -0.23470686401E+04  0.23470686401E+04  0.00000000000E+00 0. -1.
  1000006    1    1    2  501    0 -0.99691687779E+02  0.10400079953E+03 -0.10890770437E+04  0.11529715547E+04  0.35000000000E+03 0.  0.
 -1000006    1    1    2    0  503  0.99691687779E+02 -0.10400079953E+03 -0.11968336113E+04  0.12552550705E+04  0.35000000000E+03 0.  0.
<scales pt_clust_1="13000.00000" pt_clust_2="13000.00000"></scales>
<clustering>
<clus scale="  378.490">  1  3  2 -1</clus>
<clus scale="  378.490">  1  3  2 -1</clus>
</clustering>
</event>
<event>
 6   2  0.3464723E-02  0.5544206E+03  0.7816531E-02  0.1000476E+00
       21   -1    0    0  503  502  0.00000000000E+00  0.00000000000E+00  0.46904921844E+03  0.46904921844E+03  0.00000000000E+00 0.  1.
       21   -1    0    0  505  503  0.00000000000E+00  0.00000000000E+00 -0.21780040212E+04  0.21780040212E+04  0.00000000000E+00 0. -1.
  1000006    1    1    2  501    0  0.26418486414E+03  0.50949936916E+03 -0.70461302534E+03  0.97383918852E+03  0.35000000000E+03 0.  0.
 -1000006    1    1    2    0  502 -0.68674865780E+02 -0.39148805374E+03  0.10141479147E+03  0.53922545688E+03  0.35000000000E+03 0.  0.
       21    1    1    2  504  501 -0.66631968826E+02  0.12664371879E+02 -0.31272054430E+03  0.31999116303E+03  0.00000000000E+00 0.  1.
       21    1    1    2  505  504 -0.12887802953E+03 -0.13067568729E+03 -0.79303602455E+03  0.81399743119E+03  0.00000000000E+00 0.  1.
<scales pt_clust_1="13000.00000" pt_clust_2="13000.00000" pt_clust_3="63.99358" pt_clust_4="251.46082"></scales>
<clustering>
<clus scale="   63.994">  5  6 -1 -1</clus>
<clus scale="  251.461">  2  5  1 -1</clus>
<clus scale="  554.421">  2  3  1 -1</clus>
<clus scale="  554.421">  1  3  2 -1</clus>
</clustering>
</event>
<event>
 5   1  0.3464723E-02  0.3629939E+03  0.7816531E-02  0.1057405E+00
       21   -1    0    0  501  502  0.00000000000E+00  0.00000000000E+00  0.40201421999E+03  0.40201421999E+03  0.00000000000E+00 0.  1.
       21   -1    0    0  504  503  0.00000000000E+00  0.00000000000E+00 -0.86215421927E+03  0.86215421927E+03  0.00000000000E+00 0.  1.
  1000006    1    1    2  501    0 -0.52023861150E+02  0.92778342169E+02  0.21021722640E+03  0.42190708122E+03  0.35000000000E+03 0.  0.
 -1000006    1    1    2    0  503  0.92554424455E+02  0.20224388008E+02 -0.60561660765E+03  0.70586600911E+03  0.35000000000E+03 0.  0.
       21    1    1    2  504  502 -0.40530563306E+02 -0.11300273018E+03 -0.64740618024E+02  0.13639534894E+03  0.00000000000E+00 0.  1.
<scales pt_clust_1="13000.00000" pt_clust_2="13000.00000" pt_clust_3="120.05142"></scales>
<clustering>
<clus scale="  120.051">  2  5  1 -1</clus>
<clus scale="  362.994">  2  4  1 -1</clus>
<clus scale="  362.994">  1  3  2 -1</clus>
</clustering>
</event>
<event>
 6   2  0.3464723E-02  0.4463611E+03  0.7816531E-02  0.1028813E+00
       21   -1    0    0  505  502  0.00000000000E+00  0.00000000000E+00  0.21612777768E+04  0.21612777768E+04  0.00000000000E+00 0.  1.
       21   -1    0    0  501  503  0.00000000000E+00  0.00000000000E+00 -0.54792597820E+03  0.54792597820E+03  0.00000000000E+00 0.  1.
  1000006    1    1    2  501    0  0.28402567090E+03  0.14290658086E+03 -0.30208286480E+03  0.56111222566E+03  0.35000000000E+03 0.  0.
 -1000006    1    1    2    0  504 -0.21260970467E+02 -0.16085176892E+03  0.50308872040E+03  0.63397443247E+03  0.35000000000E+03 0.  0.
       21    1    1    2  504  502 -0.22027963132E+03 -0.28891660034E+01  0.19017128327E+03  0.29102676893E+03  0.00000000000E+00 0. -1.
       21    1    1    2  505  503 -0.42485069107E+02  0.20834354070E+02  0.12221746597E+04  0.12230903279E+04  0.00000000000E+00 0.  1.
<scales pt_clust_1="13000.00000" pt_clust_2="13000.00000" pt_clust_3="231.18265" pt_clust_4="47.31862"></scales>
<clustering>
<clus scale="   47.319">  1  6  2 -1</clus>
<clus scale="  231.183">  1  5  2 -1</clus>
<clus scale="  446.361">  1  4  2 -1</clus>
<clus scale="  446.361">  1  3  2 -1</clus>
</clustering>
</event>
<event>
 5   1  0.3464723E-02  0.8604092E+03  0.7816531E-02  0.9476472E-01
       21   -1    0    0  501  502  0.00000000000E+00  0.00000000000E+00  0.14134212690E+04  0.14134212690E+04  0.00000000000E+00 0.  1.
       21   -1    0    0  504  503  0.00000000000E+00  0.00000000000E+00 -0.63176141971E+03  0.63176141971E+03  0.00000000000E+00 0. -1.
  1000006    1    1    2  501    0  0.18801385184E+03 -0.75974406336E+03  0.64510206204E+03  0.10729477717E+04  0.35000000000E+03 0.  0.
 -1000006    1    1    2    0  503 -0.22615274306E+03  0.75492022277E+03  0.34283666481E+02  0.86297449309E+03  0.35000000000E+03 0.  0.
       21    1    1    2  504  502  0.38138891217E+02  0.48238405873E+01  0.10227412079E+03  0.10926042396E+03  0.00000000000E+00 0.  1.
<scales pt_clust_1="13000.00000" pt_clust_2="13000.00000" pt_clust_3="38.44274"></scales>
<clustering>
<clus scale="   38.443">  1  5  2 -1</clus>
<clus scale="  860.409">  1  3  2 -1</clus>
<clus scale="  860.409">  1  3  2 -1</clus>
</clustering>
</event>
<event>
 6   2  0.3464723E-02  0.8622577E+03  0.7816531E-02  0.9474031E-01
       -3   -1    0    0    0  501  0.00000000000E+00  0.00000000000E+00  0.19269557501E+04  0.19269557501E+04  0.00000000000E+00 0.  1.
       21   -1    0    0  504  503  0.00000000000E+00  0.00000000000E+00 -0.33622927937E+03  0.33622927937E+03  0.00000000000E+00 0.  1.
  1000006    1    1    2  502    0 -0.54862312746E+02  0.14581993232E+02  0.28605615415E+03  0.45557725054E+03  0.35000000000E+03 0.  0.
 -1000006    1    1    2    0  503 -0.32753191533E+03  0.61848994578E+02  0.84738671010E+02  0.49069654172E+03  0.35000000000E+03 0.  0.
       21    1    1    2  504  501  0.38390494565E+02  0.58815874230E+02  0.40858636696E+02  0.81256171009E+02  0.00000000000E+00 0.  1.
       -3    1    1    2    0  502  0.34400373351E+03 -0.13524686204E+03  0.11790730089E+04  0.12356550662E+04  0.00000000000E+00 0.  1.
<scales pt_clust_1="13000.00000" pt_clust_2="13000.00000" pt_clust_3="70.23629" pt_clust_4="370.95835"></scales>
<clustering>
<clus scale="   70.236">  2  5  1 -1</clus>
<clus scale="  350.399">  3  4 -1 -1</clus>
<clus scale="  370.958">  1  6  2 -1</clus>
<clus scale="  862.258">  2  3  1 -1</clus>
</clustering>
</event>
<event>
 5   1  0.3464723E-02  0.3833421E+03  0.7816531E-02  0.1049705E+00
       21   -1    0    0  504  502  0.00000000000E+00  0.00000000000E+00  0.30136135065E+04  0.30136135065E+04  0.00000000000E+00 0.  1.
       21   -1    0    0  502  503  0.00000000000E+00  0.00000000000E+00 -0.10120840047E+03  0.10120840047E+03  0.00000000000E+00 0.  1.
  1000006    1    1    2  501    0 -0.10985507600E+03 -0.63397479390E+02  0.17259396566E+04  0.17656316367E+04  0.35000000000E+03 0.  0.
 -1000006    1    1    2    0  503  0.13588538916E+03  0.92281653334E+02  0.38107498661E+03  0.54286175768E+03  0.35000000000E+03 0.  0.
       21    1    1    2  504  501 -0.26030313157E+02 -0.28884173944E+02  0.80539046274E+03  0.80632851257E+03  0.00000000000E+00 0.  1.
<scales pt_clust_1="13000.00000" pt_clust_2="13000.00000" pt_clust_3="38.88281"></scales>
<clustering>
<clus scale="   38.883">  1  5  2 -1</clus>
<clus scale="  383.342">  1  3  2 -1</clus>
<clus scale="  383.342">  1  3  2 -1</clus>
</clustering>
</event>
<event>
 6   2  0.3464723E-02  0.4241998E+03  0.7816531E-02  0.1035708E+00
       21   -1    0    0  504  502  0.00000000000E+00  0.00000000000E+00  0.84654775596E+03  0.84654775596E+03  0.00000000000E+00 0. -1.
       21   -1    0    0  505  503  0.00000000000E+00  0.00000000000E+00 -0.11435456448E+04  0.11435456448E+04  0.00000000000E+00 0.  1.
  1000006    1    1    2  501    0 -0.23382033247E+03 -0.16355732296E+03  0.65503416399E+02  0.45630433192E+03  0.35000000000E+03 0.  0.
 -1000006    1    1    2    0  502  0.20759573633E+03  0.83781032173E+02  0.49352502560E+03  0.64512185049E+03  0.35000000000E+03 0.  0.
       21    1    1    2  504  503  0.13099506013E+02  0.35212554976E+02 -0.68115617185E+01  0.38182698422E+02  0.00000000000E+00 0. -1.
       21    1    1    2  505  501  0.13125090126E+02  0.44563735814E+02 -0.84921476907E+03  0.85048451988E+03  0.00000000000E+00 0.  1.
<scales pt_clust_1="13000.00000" pt_clust_2="13000.00000" pt_clust_3="37.57022" pt_clust_4="74.89486"></scales>
<clustering>
<clus scale="   37.570">  2  5  1 -1</clus>
<clus scale="   74.895">  2  6  1 -1</clus>
<clus scale="  424.200">  2  3  1 -1</clus>
<clus scale="  424.200">  1  3  2 -1</clus>
</clustering>
</event>
<event>
 6   2  0.3464723E-02  0.4110518E+03  0.7816531E-02  0.1040019E+00
       21   -1    0    0  501  502  0.00000000000E+00  0.00000000000E+00  0.30386471190E+03  0.30386471190E+03  0.00000000000E+00 0. -1.
       21   -1    0    0  504  503  0.00000000000E+00  0.00000000000E+00 -0.14798704034E+04  0.14798704034E+04  0.00000000000E+00 0. -1.
  1000006    1    1    2  501    0  0.10053159805E+03  0.15397978429E+03 -0.62028076593E+02  0.40020477067E+03  0.35000000000E+03 0.  0.
 -1000006    1    1    2    0  505 -0.18960477933E+03 -0.19293824335E+03 -0.25214544037E+03  0.50916840160E+03  0.35000000000E+03 0.  0.
       21    1    1    2  504  502  0.94461332541E+02  0.68902979631E+02 -0.69913192222E+03  0.70884131412E+03  0.00000000000E+00 0. -1.
       21    1    1    2  505  503 -0.53881512604E+01 -0.29944520576E+02 -0.16270025230E+03  0.16552062888E+03  0.00000000000E+00 0. -1.
<scales pt_clust_1="13000.00000" pt_clust_2="13000.00000" pt_clust_3="105.74997" pt_clust_4="30.42543"></scales>
<clustering>
<clus scale="   30.425">  2  6  1 -1</clus>
<clus scale="  105.750">  2  5  1 -1</clus>
<clus scale="  411.052">  1  3  2 -1</clus>
<clus scale="  411.052">  1  3  2 -1</clus>
</clustering>
</event>
<event>
 4   0  0.3464723E-02  0.4593599E+03  0.7816531E-02  0.1024967E+00
       21   -1    0    0  501  502  0.00000000000E+00  0.00000000000E+00  0.35144808966E+03  0.35144808966E+03  0.00000000000E+00 0.  1.
       21   -1    0    0  502  503  0.00000000000E+00  0.00000000000E+00 -0.64512997600E+03  0.64512997600E+03  0.00000000000E+00 0.  1.
  1000006    1    1    2  501    0  0.13022525164E+03 -0.26749372116E+03 -0.15642585122E+02  0.45962614971E+03  0.35000000000E+03 0.  0.
 -1000006    1    1    2    0  503 -0.13022525164E+03  0.26749372116E+03 -0.27803930121E+03  0.53695191595E+03  0.35000000000E+03 0.  0.
<scales pt_clust_1="13000.00000" pt_clust_2="13000.00000"></scales>
<clustering>
<clus scale="  459.360">  1  3  2 -1</clus>
<clus scale="  459.360">  1  3  2 -1</clus>
</clustering>
</event>
<event>
 4   0  0.3464723E-02  0.3547034E+03  0.7816531E-02  0.1060701E+00
       21   -1    0    0  501  502  0.00000000000E+00  0.00000000000E+00  0.36497428466E+03  0.36497428466E+03  0.00000000000E+00 0.  1.
       21   -1    0    0  502  503  0.00000000000E+00  0.00000000000E+00 -0.36776364279E+03  0.36776364279E+03  0.00000000000E+00 0.  1.
  1000006    1    1    2  501    0 -0.56954314757E+02  0.84089162096E+01  0.90310775968E+02  0.36601986298E+03  0.35000000000E+03 0.  0.
 -1000006    1    1    2    0  503  0.56954314757E+02 -0.84089162096E+01 -0.93100134095E+02  0.36671806447E+03  0.35000000000E+03 0.  0.
<scales pt_clust_1="13000.00000" pt_clust_2="13000.00000"></scales>
<clustering>
<clus scale="  354.703">  1  3  2 -1</clus>
<clus scale="  354.703">  1  3  2 -1</clus>
</clustering>
</event>
<event>
 6   2  0.3464723E-02  0.4481515E+03  0.7816531E-02  0.1028275E+00
       21   -1    0    0  505  502  0.00000000000E+00  0.00000000000E+00  0.39814468844E+03  0.39814468844E+03  0.00000000000E+00 0.  1.
       21   -1    0    0  504  503  0.00000000000E+00  0.00000000000E+00 -0.79305005391E+03  0.79305005391E+03  0.00000000000E+00 0. -1.
  1000006    1    1    2  501    0 -0.27157071459E+03 -0.78442327286E+02 -0.35080635799E+03  0.57049886287E+03  0.35000000000E+03 0.  0.
 -1000006    1    1    2    0  502  0.27733082286E+03  0.36244108696E+02  0.77029790883E+02  0.45459829455E+03  0.35000000000E+03 0.  0.
       21    1    1    2  504  501 -0.40855742057E+02 -0.21335044964E+01 -0.95744265388E+02  0.10411872000E+03  0.00000000000E+00 0.  1.
       21    1    1    2  505  503  0.35095633792E+02  0.44331723086E+02 -0.25384532982E+02  0.61978864928E+02  0.00000000000E+00 0. -1.
<scales pt_clust_1="13000.00000" pt_clust_2="13000.00000" pt_clust_3="40.91141" pt_clust_4="54.87260"></scales>
<clustering>
<clus scale="   40.911">  2  5  1 -1</clus>
<clus scale="   54.873">  2  6  1 -1</clus>
<clus scale="  448.151">  2  3  1 -1</clus>
<clus scale="  448.151">  1  3  2 -1</clus>
</clustering>
</event>
<event>
 5   1  0.3464723E-02  0.3873238E+03  0.7816531E-02  0.1048260E+00
       21   -1    0    0  501  502  0.00000000000E+00  0.00000000000E+00  0.26610742046E+03  0.26610742046E+03  0.00000000000E+00 0. -1.
       21   -1    0    0  504  503  0.00000000000E+00  0.00000000000E+00 -0.10380066451E+04  0.10380066451E+04  0.00000000000E+00 0. -1.
  1000006    1    1    2  501    0  0.14963499494E+03 -0.74364494272E+02 -0.19583765588E+02  0.38833520777E+03  0.35000000000E+03 0.  0.
 -1000006    1    1    2    0  503 -0.12181182943E+03  0.11628161167E+03 -0.39153114101E+03  0.55150355337E+03  0.35000000000E+03 0.  0.
       21    1    1    2  504  502 -0.27823165506E+02 -0.41917117394E+02 -0.36078431800E+03  0.36427530439E+03  0.00000000000E+00 0. -1.
<scales pt_clust_1="13000.00000" pt_clust_2="13000.00000" pt_clust_3="50.31077"></scales>
<clustering>
<clus scale="   50.311">  2  5  1 -1</clus>
<clus scale="  387.324">  1  3  2 -1</clus>
<clus scale="  387.324">  1  3  2 -1</clus>
</clustering>
</event>
<event>
 5   1  0.3464723E-02  0.5029727E+03  0.7816531E-02  0.1013006E+00
       21   -1    0    0  503  502  0.00000000000E+00  0.00000000000E+00  0.10436165820E+04  0.10436165820E+04  0.00000000000E+00 0.  1.
       21   -1    0    0  504  503  0.00000000000E+00  0.00000000000E+00 -0.96450786098E+03  0.96450786098E+03  0.00000000000E+00 0.  1.
  1000006    1    1    2  501    0  0.32996630887E+03 -0.46841104319E+02 -0.96133125439E+02  0.49276102915E+03  0.35000000000E+03 0.  0.
 -1000006    1    1    2    0  502 -0.36747941303E+03  0.28952099269E+02  0.76809311170E+03  0.92105720305E+03  0.35000000000E+03 0.  0.
       21    1    1    2  504  501  0.37513104159E+02  0.17889005050E+02 -0.59285126524E+03  0.59430621079E+03  0.00000000000E+00 0.  1.
<scales pt_clust_1="13000.00000" pt_clust_2="13000.00000" pt_clust_3="41.56019"></scales>
<clustering>
<clus scale="   41.560">  2  5  1 -1</clus>
<clus scale="  502.973">  1  4  2 -1</clus>
<clus scale="  502.973">  1  3  2 -1</clus>
</clustering>
</event>
<event>
 4   0  0.3464723E-02  0.3586444E+03  0.7816531E-02  0.1059122E+00
       21   -1    0    0  503  502  0.00000000000E+00  0.00000000000E+00  0.24444972125E+03  0.24444972125E+03  0.00000000000E+00 0. -1.
       21   -1    0    0  501  503  0.00000000000E+00  0.00000000000E+00 -0.59763575680E+03  0.59763575680E+03  0.00000000000E+00 0. -1.
  1000006    1    1    2  501    0  0.76669714662E+02 -0.15733852375E+02 -0.32217614029E+03  0.48210296061E+03  0.35000000000E+03 0.  0.
 -1000006    1    1    2    0  502 -0.76669714662E+02  0.15733852375E+02 -0.31009895253E+02  0.35998251744E+03  0.35000000000E+03 0.  0.
<scales pt_clust_1="13000.00000" pt_clust_2="13000.00000"></scales>
<clustering>
<clus scale="  358.644">  2  3  1 -1</clus>
<clus scale="  358.644">  1  3  2 -1</clus>
</clustering>
</event>
<event>
 5   1  0.3464723E-02  0.6298400E+03  0.7816531E-02  0.9845361E-01
       21   -1    0    0  503  502  0.00000000000E+00  0.00000000000E+00  0.51079501785E+03  0.51079501785E+03  0.00000000000E+00 0.  1.
       21   -1    0    0  504  503  0.00000000000E+00  0.00000000000E+00 -0.88783926572E+03  0.88783926572E+03  0.00000000000E+00 0. -1.
  1000006    1    1    2  501    0 -0.48048406381E+03 -0.20995321979E+03 -0.32566608567E+03  0.70957993872E+03  0.35000000000E+03 0.  0.
 -1000006    1    1    2    0  502  0.49633858614E+03  0.16780793137E+03 -0.13532868766E+02  0.63023379190E+03  0.35000000000E+03 0.  0.
       21    1    1    2  504  501 -0.15854522331E+02  0.42145288415E+02 -0.37845293433E+02  0.58820552947E+02  0.00000000000E+00 0.  1.
<scales pt_clust_1="13000.00000" pt_clust_2="13000.00000" pt_clust_3="45.02878"></scales>
<clustering>
<clus scale="   45.029">  2  5  1 -1</clus>
<clus scale="  629.840">  1  4  2 -1</clus>
<clus scale="  629.840">  1  3  2 -1</clus>
</clustering>
</event>
<event>
 5   1  0.3464723E-02  0.4379438E+03  0.7816531E-02  0.1031380E+00
       21   -1    0    0  502  503  0.00000000000E+00  0.00000000000E+00  0.19105583775E+03  0.19105583775E+03  0.00000000000E+00 0.  1.
        2   -1    0    0  501    0  0.00000000000E+00  0.00000000000E+00 -0.15423547350E+04  0.15423547350E+04  0.00000000000E+00 0. -1.
  1000006    1    1    2  501    0  0.11512258646E+03  0.15953776111E+03 -0.63845279835E+03  0.75420652533E+03  0.35000000000E+03 0.  0.
 -1000006    1    1    2    0  503 -0.29632263348E+03 -0.14139075373E+03 -0.43940577896E+03  0.65067341035E+03  0.35000000000E+03 0.  0.
        2    1    1    2  502    0  0.18120004702E+03 -0.18147007378E+02 -0.27344031993E+03  0.32853063705E+03  0.00000000000E+00 0. -1.
<scales pt_clust_1="13000.00000" pt_clust_2="13000.00000" pt_clust_3="182.10648"></scales>
<clustering>
<clus scale="  182.106">  2  5  1 -1</clus>
<clus scale="  437.944">  1  4  2 -1</clus>
<clus scale="  437.944">  1  3  2 -1</clus>
</clustering>
</event>
<event>
 4   0  0.3464723E-02  0.3704157E+03  0.7816531E-02  0.1054534E+00
       21   -1    0    0  501  502  0.00000000000E+00  0.00000000000E+00  0.72396011569E+03  0.72396011569E+03  0.00000000000E+00 0. -1.
       21   -1    0    0  502  503  0.00000000000E+00  0.00000000000E+00 -0.58329499730E+03  0.58329499730E+03  0.00000000000E+00 0. -1.
  1000006    1    1    2  501    0  0.11897656433E+03 -0.23502592788E+02  0.60737438091E+03  0.71141509213E+03  0.35000000000E+03 0.  0.
 -1000006    1    1    2    0  503 -0.11897656433E+03  0.23502592788E+02 -0.46670926252E+03  0.59584002085E+03  0.35000000000E+03 0.  0.
<scales pt_clust_1="13000.00000" pt_clust_2="13000.00000"></scales>
<clustering>
<clus scale="  370.416">  1  3  2 -1</clus>
<clus scale="  370.416">  1  3  2 -1</clus>
</clustering>
</event>
<event>
 4   0  0.3464723E-02  0.4676583E+03  0.7816531E-02  0.1022583E+00
       21   -1    0    0  501  502  0.00000000000E+00  0.00000000000E+00  0.13452635172E+04  0.13452635172E+04  0.00000000000E+00 0. -1.
       21   -1    0    0  502  503  0.00000000000E+00  0.00000000000E+00 -0.43584561868E+03  0.43584561868E+03  0.00000000000E+00 0.  1.
  1000006    1    1    2  501    0 -0.19146300875E+03  0.24402096460E+03  0.11598756347E+04  0.12506061741E+04  0.35000000000E+03 0.  0.
 -1000006    1    1    2    0  503  0.19146300875E+03 -0.24402096460E+03 -0.25045773612E+03  0.53050296179E+03  0.35000000000E+03 0.  0.
<scales pt_clust_1="13000.00000" pt_clust_2="13000.00000"></scales>
<clustering>
<clus scale="  467.658">  1  3  2 -1</clus>
<clus scale="  467.658">  1  3  2 -1</clus>
</clustering>
</event>
<event>
 5   1  0.3464723E-02  0.3961180E+03  0.7816531E-02  0.1045132E+00
       21   -1    0    0  504  502  0.00000000000E+00  0.00000000000E+00  0.40274259703E+03  0.40274259703E+03  0.00000000000E+00 0.  1.
       21   -1    0    0  501  503  0.00000000000E+00  0.00000000000E+00 -0.87420935431E+03  0.87420935431E+03  0.00000000000E+00 0.  1.
  1000006    1    1    2  501    0  0.86377839242E+02  0.15415466719E+03 -0.64488763593E+03  0.75472170732E+03  0.35000000000E+03 0.  0.
 -1000006    1    1    2    0  502 -0.12974145376E+03 -0.18819960757E+03  0.98970532995E+02  0.42958945927E+03  0.35000000000E+03 0.  0.
       21    1    1    2  504  503  0.43363614522E+02  0.34044940378E+02  0.74450345660E+02  0.92640784747E+02  0.00000000000E+00 0.  1.
<scales pt_clust_1="13000.00000" pt_clust_2="13000.00000" pt_clust_3="55.13131"></scales>
<clustering>
<clus scale="   55.131">  1  5  2 -1</clus>
<clus scale="  396.118">  2  3  1 -1</clus>
<clus scale="  396.118">  1  3  2 -1</clus>
</clustering>
</event>
<event>
 5   1  0.3464723E-02  0.4469585E+03  0.7816531E-02  0.1028633E+00
       21   -1    0    0  501  502  0.00000000000E+00  0.00000000000E+00  0.65192955986E+03  0.65192955986E+03  0.00000000000E+00 0.  1.
       21   -1    0    0  502  503  0.00000000000E+00  0.00000000000E+00 -0.68762903607E+03  0.68762903607E+03  0.00000000000E+00 0.  1.
  1000006    1    1    2  501    0  0.25772255706E+03  0.65670607555E+02  0.41868358441E+03  0.60706629701E+03  0.35000000000E+03 0.  0.
 -1000006    1    1    2    0  504 -0.32869016824E+03 -0.10560122159E+03 -0.40736279032E+03  0.63846165714E+03  0.35000000000E+03 0.  0.
       21    1    1    2  504  503  0.70967611182E+02  0.39930614032E+02 -0.47020270301E+02  0.94030641777E+02  0.00000000000E+00 0.  1.
<scales pt_clust_1="13000.00000" pt_clust_2="13000.00000" pt_clust_3="81.43007"></scales>
<clustering>
<clus scale="   81.430">  2  5  1 -1</clus>
<clus scale="  446.958">  1  3  2 -1</clus>
<clus scale="  446.958">  1  3  2 -1</clus>
</clustering>
</event>
<event>
 6   2  0.3464723E-02  0.3727861E+03  0.7816531E-02  0.1053633E+00
       -3   -1    0    0    0  501  0.00000000000E+00  0.00000000000E+00  0.99579212491E+03  0.99579212491E+03  0.00000000000E+00 0.  1.
       21   -1    0    0  502  503  0.00000000000E+00  0.00000000000E+00 -0.22394285685E+04  0.22394285685E+04  0.00000000000E+00 0.  1.
  1000006    1    1    2  502    0  0.58067151724E+02  0.92722142363E+02 -0.12875505918E+04  0.13387515513E+04  0.35000000000E+03 0.  0.
 -1000006    1    1    2    0  504  0.70525101287E+02 -0.18953349245E+03 -0.86256083541E+03  0.95257961843E+03  0.35000000000E+03 0.  0.
       21    1    1    2  504  501 -0.10492718472E+03  0.55056338314E+02  0.17799183660E+03  0.21382705250E+03  0.00000000000E+00 0. -1.
       -3    1    1    2    0  503 -0.23665068290E+02  0.41755011774E+02  0.72848314695E+03  0.73006247120E+03  0.00000000000E+00 0.  1.
<scales pt_clust_1="13000.00000" pt_clust_2="13000.00000" pt_clust_3="149.38445" pt_clust_4="47.99496"></scales>
<clustering>
<clus scale="   47.995">  1  6  2 -1</clus>
<clus scale="  149.384">  1  5  2 -1</clus>
<clus scale="  372.786">  1  4  2 -1</clus>
<clus scale="  372.786">  2  3  1 -1</clus>
</clustering>
</event>
<event>
 5   1  0.3464723E-02  0.3758505E+03  0.7816531E-02  0.1052478E+00
       21   -1    0    0  502  503  0.00000000000E+00  0.00000000000E+00  0.30395583859E+03  0.30395583859E+03  0.00000000000E+00 0.  1.
        2   -1    0    0  501    0  0.00000000000E+00  0.00000000000E+00 -0.18236836286E+04  0.18236836286E+04  0.00000000000E+00 0.  1.
  1000006    1    1    2  501    0  0.47037529276E+02 -0.11200631864E+03 -0.45678561398E+03  0.58814202512E+03  0.35000000000E+03 0.  0.
 -1000006    1    1    2    0  503 -0.13255296298E+03  0.66948467370E+02  0.83273687363E+02  0.38921317075E+03  0.35000000000E+03 0.  0.
        2    1    1    2  502    0  0.85515433709E+02  0.45057851267E+02 -0.11462158633E+04  0.11502842713E+04  0.00000000000E+00 0.  1.
<scales pt_clust_1="13000.00000" pt_clust_2="13000.00000" pt_clust_3="96.65971"></scales>
<clustering>
<clus scale="   96.660">  2  5  1 -1</clus>
<clus scale="  375.850">  2  3  1 -1</clus>
<clus scale="  375.850">  1  3  2 -1</clus>
</clustering>
</event>
<event>
 5   1  0.3464723E-02  0.4401867E+03  0.7816531E-02  0.1030690E+00
       21   -1    0    0  503  502  0.00000000000E+00  0.00000000000E+00  0.70348476238E+03  0.70348476238E+03  0.00000000000E+00 0. -1.
       21   -1    0    0  501  503  0.00000000000E+00  0.00000000000E+00 -0.41958614898E+03  0.41958614898E+03  0.00000000000E+00 0. -1.
  1000006    1    1    2  501    0  0.22305596969E+03  0.15292570049E+03 -0.91305075468E+02  0.45163796595E+03  0.35000000000E+03 0.  0.
 -1000006    1    1    2    0  504 -0.19354107235E+03 -0.17702519891E+03  0.18069999400E+03  0.47323203143E+03  0.35000000000E+03 0.  0.
       21    1    1    2  504  502 -0.29514897336E+02  0.24099498421E+02  0.19450369486E+03  0.19820091398E+03  0.00000000000E+00 0. -1.
<scales pt_clust_1="13000.00000" pt_clust_2="13000.00000" pt_clust_3="38.10400"></scales>
<clustering>
<clus scale="   38.104">  1  5  2 -1</clus>
<clus scale="  440.187">  1  4  2 -1</clus>
<clus scale="  440.187">  1  3  2 -1</clus>
</clustering>
</event>
<event>
 6   2  0.3464723E-02  0.3598595E+03  0.7816531E-02  0.1058640E+00
       21   -1    0    0  501  503  0.00000000000E+00  0.00000000000E+00  0.41456204651E+03  0.41456204651E+03  0.00000000000E+00 0. -1.
        2   -1    0    0  503    0  0.00000000000E+00  0.00000000000E+00 -0.13128035885E+04  0.13128035885E+04  0.00000000000E+00 0. -1.
  1000006    1    1    2  501    0 -0.51855367837E+02  0.93457218960E+02  0.12830615583E+03  0.38779595224E+03  0.35000000000E+03 0.  0.
 -1000006    1    1    2    0  504  0.91213519671E+02  0.24519117724E+02 -0.97655139892E+02  0.37544323093E+03  0.35000000000E+03 0.  0.
       21    1    1    2  504  502 -0.93309221893E+02 -0.13916426637E+03 -0.42379893155E+03  0.45571793722E+03  0.00000000000E+00 0. -1.
        2    1    1    2  502    0  0.53951070058E+02  0.21187929686E+02 -0.50509362634E+03  0.50840851457E+03  0.00000000000E+00 0. -1.
<scales pt_clust_1="13000.00000" pt_clust_2="13000.00000" pt_clust_3="142.69900" pt_clust_4="57.96246"></scales>
<clustering>
<clus scale="   57.962">  2  6  1 -1</clus>
<clus scale="  142.699">  2  5  1 -1</clus>
<clus scale="  359.859">  1  3  2 -1</clus>
<clus scale="  359.859">  1  3  2 -1</clus>
</clustering>
</event>
<event>
 6   2  0.3464723E-02  0.3581522E+03  0.7816531E-02  0.1059318E+00
        3   -1    0    0  503    0  0.00000000000E+00  0.00000000000E+00  0.49186322799E+03  0.49186322799E+03  0.00000000000E+00 0.  1.
       21   -1    0    0  504  503  0.00000000000E+00  0.00000000000E+00 -0.12068502469E+04  0.12068502469E+04  0.00000000000E+00 0.  1.
  1000006    1    1    2  501    0 -0.65872637696E+02 -0.10794375717E+03 -0.58009309690E+03  0.68920175578E+03  0.35000000000E+03 0.  0.
 -1000006    1    1    2    0  502 -0.13139336777E+03  0.73819836966E+01  0.13266734740E+03  0.39676105636E+03  0.35000000000E+03 0.  0.
       21    1    1    2  504  501  0.14008303903E+03  0.68497456837E+02 -0.41935320757E+03  0.44740616012E+03  0.00000000000E+00 0.  1.
        3    1    1    2  502    0  0.57182966437E+02  0.32064316636E+02  0.15179193817E+03  0.16534450261E+03  0.00000000000E+00 0.  1.
<scales pt_clust_1="13000.00000" pt_clust_2="13000.00000" pt_clust_3="158.68791" pt_clust_4="65.55923"></scales>
<clustering>
<clus scale="   65.559">  1  6  2 -1</clus>
<clus scale="  158.688">  2  5  1 -1</clus>
<clus scale="  358.152">  1  4  2 -1</clus>
<clus scale="  358.152">  2  3  1 -1</clus>
</clustering>
</event>
<event>
 5   1  0.3464723E-02  0.3974284E+03  0.7816531E-02  0.1044674E+00
       21   -1    0    0  501  502  0.00000000000E+00  0.00000000000E+00  0.81250932770E+03  0.81250932770E+03  0.00000000000E+00 0. -1.
       21   -1    0    0  502  503  0.00000000000E+00  0.00000000000E+00 -0.70023866455E+03  0.70023866455E+03  0.00000000000E+00 0. -1.
  1000006    1    1    2  501    0 -0.16638700494E+03  0.83984178540E+02  0.31486744377E+03  0.50633929810E+03  0.35000000000E+03 0.  0.
 -1000006    1    1    2    0  504  0.18287735495E+03 -0.57012102183E+02  0.30226484798E+03  0.50055823345E+03  0.35000000000E+03 0.  0.
       21    1    1    2  504  503 -0.16490350017E+02 -0.26972076357E+02 -0.50486162861E+03  0.50585046070E+03  0.00000000000E+00 0. -1.
<scales pt_clust_1="13000.00000" pt_clust_2="13000.00000" pt_clust_3="31.61368"></scales>
<clustering>
<clus scale="   31.614">  2  5  1 -1</clus>
<clus scale="  397.428">  2  4  1 -1</clus>
<clus scale="  397.428">  1  3  2 -1</clus>
</clustering>
</event>
<event>
 6   2  0.3464723E-02  0.7245063E+03  0.7816531E-02  0.9676217E-01
       21   -1    0    0  505  502  0.00000000000E+00  0.00000000000E+00  0.32341193023E+04  0.32341193023E+04  0.00000000000E+00 0.  1.
       21   -1    0    0  501  503  0.00000000000E+00  0.00000000000E+00 -0.87286836540E+03  0.87286836540E+03  0.00000000000E+00 0.  1.
  1000006    1    1    2  501    0 -0.27414667992E+03  0.57168615207E+03  0.72356339205E+03  0.10237311370E+04  0.35000000000E+03 0.  0.
 -1000006    1    1    2    0  504  0.41700998972E+03 -0.49500241085E+03  0.15927826665E+04  0.17545316586E+04  0.35000000000E+03 0.  0.
       21    1    1    2  504  502 -0.29571158204E+02 -0.59938254922E+01  0.67953152000E+03  0.68020104823E+03  0.00000000000E+00 0. -1.
       21    1    1    2  505  503 -0.11329215159E+03 -0.70689915733E+02 -0.63462664166E+03  0.64852382385E+03  0.00000000000E+00 0.  1.
<scales pt_clust_1="13000.00000" pt_clust_2="13000.00000" pt_clust_3="30.17249" pt_clust_4="133.61405"></scales>
<clustering>
<clus scale="   30.172">  1  5  2 -1</clus>
<clus scale="  133.614">  2  6  1 -1</clus>
<clus scale="  724.506">  1  4  2 -1</clus>
<clus scale="  724.506">  1  3  2 -1</clus>
</clustering>
</event>
<event>
 4   0  0.3464723E-02  0.3725766E+03  0.7816531E-02  0.1053712E+00
       21   -1    0    0  501  502  0.00000000000E+00  0.00000000000E+00  0.32850431043E+03  0.32850431043E+03  0.00000000000E+00 0. -1.
       21   -1    0    0  502  503  0.00000000000E+00  0.00000000000E+00 -0.77378555684E+03  0.77378555684E+03  0.00000000000E+00 0. -1.
  1000006    1    1    2  501    0 -0.12769937862E+03  0.24809447487E+01  0.14867875496E+03  0.40114667961E+03  0.35000000000E+03 0.  0.
 -1000006    1    1    2    0  503  0.12769937862E+03 -0.24809447487E+01 -0.59396000136E+03  0.70114318766E+03  0.35000000000E+03 0.  0.
<scales pt_clust_1="13000.00000" pt_clust_2="13000.00000"></scales>
<clustering>
<clus scale="  372.577">  1  3  2 -1</clus>
<clus scale="  372.577">  1  3  2 -1</clus>
</clustering>
</event>
<event>
 5   1  0.3464723E-02  0.3874605E+03  0.7816531E-02  0.1048210E+00
        2   -1    0    0  503    0  0.00000000000E+00  0.00000000000E+00  0.13962065482E+04  0.13962065482E+04  0.00000000000E+00 0.  1.
       21   -1    0    0  501  503  0.00000000000E+00  0.00000000000E+00 -0.31544653749E+03  0.31544653749E+03  0.00000000000E+00 0.  1.
  1000006    1    1    2  501    0 -0.15898188257E+03 -0.37692678209E+02 -0.88206573382E+02  0.39620244391E+03  0.35000000000E+03 0.  0.
 -1000006    1    1    2    0  502  0.17760313438E+03  0.10607021329E+02  0.45605600085E+03  0.60178273335E+03  0.35000000000E+03 0.  0.
        2    1    1    2  502    0 -0.18621251814E+02  0.27085656880E+02  0.71291058324E+03  0.71366790843E+03  0.00000000000E+00 0.  1.
<scales pt_clust_1="13000.00000" pt_clust_2="13000.00000" pt_clust_3="32.86919"></scales>
<clustering>
<clus scale="   32.869">  1  5  2 -1</clus>
<clus scale="  387.460">  2  3  1 -1</clus>
<clus scale="  387.460">  2  3  1 -1</clus>
</clustering>
</event>
<event>
 4   0  0.3464723E-02  0.6975871E+03  0.7816531E-02  0.9721367E-01
       21   -1    0    0  501  502  0.00000000000E+00  0.00000000000E+00  0.13192564454E+04  0.13192564454E+04  0.00000000000E+00 0. -1.
       21   -1    0    0  502  503  0.00000000000E+00  0.00000000000E+00 -0.42836678554E+03  0.42836678554E+03  0.00000000000E+00 0.  1.
  1000006    1    1    2  501    0 -0.52766370609E+03  0.29274358924E+03  0.77111214920E+03  0.10398277465E+04  0.35000000000E+03 0.  0.
 -1000006    1    1    2    0  503  0.52766370609E+03 -0.29274358924E+03  0.11977751069E+03  0.70779548446E+03  0.35000000000E+03 0.  0.
<scales pt_clust_1="13000.00000" pt_clust_2="13000.00000"></scales>
<clustering>
<clus scale="  697.587">  1  3  2 -1</clus>
<clus scale="  697.587">  1  3  2 -1</clus>
</clustering>
</event>
<event>
 6   2  0.3464723E-02  0.3590956E+03  0.7816531E-02  0.1059985E+00
        1   -1    0    0  501    0  0.00000000000E+00  0.00000000000E+00  0.16257341391E+04  0.16257341391E+04  0.00000000000E+00 0. -1.
        1   -1    0    0  502    0  0.00000000000E+00  0.00000000000E+00 -0.17274486765E+04  0.17274486765E+04  0.00000000000E+00 0. -1.
  1000006    1    1    2  501    0 -0.56088929531E+02 -0.10791469947E+03  0.35879171214E+02  0.37226182359E+03  0.35000000000E+03 0.  0.
 -1000006    1    1    2    0  503 -0.20585399858E+03 -0.96575586440E+02 -0.37969315789E+03  0.56424250706E+03  0.35000000000E+03 0.  0.
        1    1    1    2  502    0 -0.47492339818E+02  0.55306593111E+01  0.12978185927E+04  0.12986990452E+04  0.00000000000E+00 0. -1.
        1    1    1    2  503    0  0.30943526793E+03  0.19895962660E+03 -0.10557191433E+04  0.11179794397E+04  0.00000000000E+00 0. -1.
<scales pt_clust_1="13000.00000" pt_clust_2="13000.00000" pt_clust_3="47.81329" pt_clust_4="364.37753"></scales>
<clustering>
<clus scale="   47.813">  1  5  2 -1</clus>
<clus scale="  364.378">  2  6  1 -1</clus>
<clus scale="  364.378">  2  4  1 -1</clus>
<clus scale="  353.890">  1  3  2 -1</clus>
</clustering>
</event>
<event>
 5   1  0.3464723E-02  0.4282241E+03  0.7816531E-02  0.1034422E+00
       21   -1    0    0  504  502  0.00000000000E+00  0.00000000000E+00  0.83814042596E+03  0.83814042596E+03  0.00000000000E+00 0. -1.
       21   -1    0    0  501  503  0.00000000000E+00  0.00000000000E+00 -0.38396021910E+03  0.38396021910E+03  0.00000000000E+00 0. -1.
  1000006    1    1    2  501    0  0.13097188060E+03  0.27555995453E+03  0.45157099762E+02  0.46650411114E+03  0.35000000000E+03 0.  0.
 -1000006    1    1    2    0  502 -0.14917133657E+03 -0.13013526150E+03  0.10116712327E+03  0.41463485233E+03  0.35000000000E+03 0.  0.
       21    1    1    2  504  503  0.18199455963E+02 -0.14542469303E+03  0.30785598382E+03  0.34096168159E+03  0.00000000000E+00 0. -1.
<scales pt_clust_1="13000.00000" pt_clust_2="13000.00000" pt_clust_3="146.55907"></scales>
<clustering>
<clus scale="  146.559">  1  5  2 -1</clus>
<clus scale="  428.224">  2  3  1 -1</clus>
<clus scale="  428.224">  1  3  2 -1</clus>
</clustering>
</event>
<event>
 4   0  0.3464723E-02  0.4911652E+03  0.7816531E-02  0.1016111E+00
       21   -1    0    0  501  502  0.00000000000E+00  0.00000000000E+00  0.36436028389E+03  0.36436028389E+03  0.00000000000E+00 0. -1.
       21   -1    0    0  502  503  0.00000000000E+00  0.00000000000E+00 -0.66210634197E+03  0.66210634197E+03  0.00000000000E+00 0.  1.
  1000006    1    1    2  501    0 -0.20453200239E+03  0.27732642624E+03 -0.14740713844E+03  0.51280810364E+03  0.35000000000E+03 0.  0.
 -1000006    1    1    2    0  503  0.20453200239E+03 -0.27732642624E+03 -0.15033891964E+03  0.51365852222E+03  0.35000000000E+03 0.  0.
<scales pt_clust_1="13000.00000" pt_clust_2="13000.00000"></scales>
<clustering>
<clus scale="  491.165">  1  3  2 -1</clus>
<clus scale="  491.165">  1  3  2 -1</clus>
</clustering>
</event>
<event>
 6   2  0.3464723E-02  0.4588330E+03  0.7816531E-02  0.1025120E+00
       21   -1    0    0  502  503  0.00000000000E+00  0.00000000000E+00  0.67487466888E+03  0.67487466888E+03  0.00000000000E+00 0.  1.
        1   -1    0    0  504    0  0.00000000000E+00  0.00000000000E+00 -0.13645662076E+04  0.13645662076E+04  0.00000000000E+00 0.  1.
  1000006    1    1    2  501    0  0.39976389575E+03 -0.40132749879E+02 -0.40225848549E+03  0.66763290745E+03  0.35000000000E+03 0.  0.
 -1000006    1    1    2    0  503 -0.27727828478E+03  0.15263752888E+02  0.41742131827E+03  0.61143829313E+03  0.35000000000E+03 0.  0.
       21    1    1    2  504  501  0.43061085436E+02  0.40394338047E+01 -0.47161596633E+03  0.47359496809E+03  0.00000000000E+00 0. -1.
        1    1    1    2  502    0 -0.16554669641E+03  0.20829563186E+02 -0.23323840518E+03  0.28677470782E+03  0.00000000000E+00 0.  1.
<scales pt_clust_1="13000.00000" pt_clust_2="13000.00000" pt_clust_3="43.25013" pt_clust_4="154.56906"></scales>
<clustering>
<clus scale="   43.250">  2  5  1 -1</clus>
<clus scale="  154.569">  2  6  1 -1</clus>
<clus scale="  458.833">  2  3  1 -1</clus>
<clus scale="  458.833">  1  3  2 -1</clus>
</clustering>
</event>
<event>
 6   2  0.3464723E-02  0.4023300E+03  0.7816531E-02  0.1042976E+00
       21   -1    0    0  504  502  0.00000000000E+00  0.00000000000E+00  0.14188634029E+04  0.14188634029E+04  0.00000000000E+00 0.  1.
       21   -1    0    0  505  503  0.00000000000E+00  0.00000000000E+00 -0.37277645055E+03  0.37277645055E+03  0.00000000000E+00 0. -1.
  1000006    1    1    2  501    0  0.32115426537E+02 -0.20253313928E+03  0.21995914425E+03  0.46144674478E+03  0.35000000000E+03 0.  0.
 -1000006    1    1    2    0  502 -0.74394036677E+02  0.20787054477E+03  0.69522659621E+03  0.80906406183E+03  0.35000000000E+03 0.  0.
       21    1    1    2  504  503 -0.19365954604E+02 -0.52930093827E+02  0.31564693673E+03  0.32063939823E+03  0.00000000000E+00 0.  1.
       21    1    1    2  505  501  0.61644564745E+02  0.47592688342E+02 -0.18474572485E+03  0.20048964860E+03  0.00000000000E+00 0. -1.
<scales pt_clust_1="13000.00000" pt_clust_2="13000.00000" pt_clust_3="56.36165" pt_clust_4="77.53820"></scales>
<clustering>
<clus scale="   56.362">  1  5  2 -1</clus>
<clus scale="   77.538">  2  6  1 -1</clus>
<clus scale="  402.330">  2  3  1 -1</clus>
<clus scale="  402.330">  1  3  2 -1</clus>
</clustering>
</event>
<event>
 4   0  0.3464723E-02  0.3848229E+03  0.7816531E-02  0.1049165E+00
       21   -1    0    0  501  502  0.00000000000E+00  0.00000000000E+00  0.87570786335E+03  0.87570786335E+03  0.00000000000E+00 0. -1.
       21   -1    0    0  502  503  0.00000000000E+00  0.00000000000E+00 -0.20078025611E+03  0.20078025611E+03  0.00000000000E+00 0. -1.
  1000006    1    1    2  501    0 -0.15553345895E+03  0.37389755001E+02  0.55124159545E+03  0.67227668946E+03  0.35000000000E+03 0.  0.
 -1000006    1    1    2    0  503  0.15553345895E+03 -0.37389755001E+02  0.12368601179E+03  0.40421143000E+03  0.35000000000E+03 0.  0.
<scales pt_clust_1="13000.00000" pt_clust_2="13000.00000"></scales>
<clustering>
<clus scale="  384.823">  1  3  2 -1</clus>
<clus scale="  384.823">  1  3  2 -1</clus>
</clustering>
</event>
<event>
 5   1  0.3464723E-02  0.4134292E+03  0.7816531E-02  0.1039226E+00
       21   -1    0    0  504  502  0.00000000000E+00  0.00000000000E+00  0.32273501336E+04  0.32273501336E+04  0.00000000000E+00 0. -1.
       21   -1    0    0  502  503  0.00000000000E+00  0.00000000000E+00 -0.11632819400E+03  0.11632819400E+03  0.00000000000E+00 0. -1.
  1000006    1    1    2  501    0 -0.16742229716E+03 -0.82203606357E+02  0.19333523776E+04  0.19736106694E+04  0.35000000000E+03 0.  0.
 -1000006    1    1    2    0  503  0.14256945170E+03  0.18309859878E+03  0.38216066161E+03  0.56780094815E+03  0.35000000000E+03 0.  0.
       21    1    1    2  504  501  0.24852845461E+02 -0.10089499242E+03  0.79550890040E+03  0.80226671004E+03  0.00000000000E+00 0.  1.
<scales pt_clust_1="13000.00000" pt_clust_2="13000.00000" pt_clust_3="103.91084"></scales>
<clustering>
<clus scale="  103.911">  1  5  2 -1</clus>
<clus scale="  413.429">  1  3  2 -1</clus>
<clus scale="  413.429">  1  3  2 -1</clus>
</clustering>
</event>
<event>
 5   1  0.3464723E-02  0.3613936E+03  0.7816531E-02  0.1058033E+00
       21   -1    0    0  503  502  0.00000000000E+00  0.00000000000E+00  0.47766294798E+03  0.47766294798E+03  0.00000000000E+00 0.  1.
       21   -1    0    0  501  503  0.00000000000E+00  0.00000000000E+00 -0.62786669016E+03  0.62786669016E+03  0.00000000000E+00 0.  1.
  1000006    1    1    2  501    0 -0.84378273621E+02  0.37679791930E+02 -0.43222668624E+03  0.56379018089E+03  0.35000000000E+03 0.  0.
 -1000006    1    1    2    0  504  0.55492662581E+02 -0.69172502941E+02  0.12988111789E+03  0.38371001492E+03  0.35000000000E+03 0.  0.
       21    1    1    2  504  502  0.28885611040E+02  0.31492711011E+02  0.15214182617E+03  0.15802944233E+03  0.00000000000E+00 0.  1.
<scales pt_clust_1="13000.00000" pt_clust_2="13000.00000" pt_clust_3="42.73370"></scales>
<clustering>
<clus scale="   42.734">  1  5  2 -1</clus>
<clus scale="  361.394">  2  3  1 -1</clus>
<clus scale="  361.394">  1  3  2 -1</clus>
</clustering>
</event>
<event>
 6   2  0.3464723E-02  0.4189568E+03  0.7816531E-02  0.1037406E+00
       21   -1    0    0  504  502  0.00000000000E+00  0.00000000000E+00  0.15702910863E+04  0.15702910863E+04  0.00000000000E+00 0.  1.
       21   -1    0    0  505  503  0.00000000000E+00  0.00000000000E+00 -0.43716050390E+03  0.43716050390E+03  0.00000000000E+00 0.  1.
  1000006    1    1    2  501    0 -0.20151891963E+03  0.14889594322E+03 -0.94848553031E+01  0.43054597821E+03  0.35000000000E+03 0.  0.
 -1000006    1    1    2    0  502  0.20017545533E+03 -0.21228752961E+02  0.26380104074E+03  0.48229851955E+03  0.35000000000E+03 0.  0.
       21    1    1    2  504  503  0.81889325340E+02  0.92822985444E+01  0.92538105204E+03  0.92904365568E+03  0.00000000000E+00 0.  1.
       21    1    1    2  505  501 -0.80545861033E+02 -0.13694948880E+03 -0.46566655113E+02  0.16556343672E+03  0.00000000000E+00 0.  1.
<scales pt_clust_1="13000.00000" pt_clust_2="13000.00000" pt_clust_3="82.41373" pt_clust_4="154.41892"></scales>
<clustering>
<clus scale="   82.414">  1  5  2 -1</clus>
<clus scale="  154.419">  2  6  1 -1</clus>
<clus scale="  418.957">  1  4  2 -1</clus>
<clus scale="  418.957">  1  3  2 -1</clus>
</clustering>
</event>
<event>
 6   2  0.3464723E-02  0.3687011E+03  0.7816531E-02  0.1055191E+00
        2   -1    0    0  504    0  0.00000000000E+00  0.00000000000E+00  0.92650824674E+03  0.92650824674E+03  0.00000000000E+00 0. -1.
       21   -1    0    0  501  503  0.00000000000E+00  0.00000000000E+00 -0.17832338854E+04  0.17832338854E+04  0.00000000000E+00 0. -1.
  1000006    1    1    2  501    0  0.41865769303E+02  0.24789616270E+02 -0.18363139940E+03  0.39823078555E+03  0.35000000000E+03 0.  0.
 -1000006    1    1    2    0  502 -0.14344291644E+03 -0.82360207660E+02 -0.82059466883E+02  0.39571811961E+03  0.35000000000E+03 0.  0.
       21    1    1    2  504  503  0.13522476800E+03  0.81969161679E+02 -0.12477671328E+04  0.12577469933E+04  0.00000000000E+00 0. -1.
        2    1    1    2  502    0 -0.33647620854E+02 -0.24398570289E+02  0.65673236037E+03  0.65804623377E+03  0.00000000000E+00 0. -1.
<scales pt_clust_1="13000.00000" pt_clust_2="13000.00000" pt_clust_3="157.36067" pt_clust_4="41.56263"></scales>
<clustering>
<clus scale="   41.563">  1  6  2 -1</clus>
<clus scale="  157.361">  2  5  1 -1</clus>
<clus scale="  368.701">  2  3  1 -1</clus>
<clus scale="  368.701">  2  3  1 -1</clus>
</clustering>
</event>
<event>
 5   1  0.3464723E-02  0.5261386E+03  0.7816531E-02  0.1007173E+00
       21   -1    0    0  501  502  0.00000000000E+00  0.00000000000E+00  0.11850913499E+04  0.11850913499E+04  0.00000000000E+00 0. -1.
       21   -1    0    0  502  503  0.00000000000E+00  0.00000000000E+00 -0.48619674081E+03  0.48619674081E+03  0.00000000000E+00 0.  1.
  1000006    1    1    2  501    0  0.20378605926E+03  0.35148380221E+03  0.89017638402E+03  0.10392226017E+04  0.35000000000E+03 0.  0.
 -1000006    1    1    2    0  504 -0.19439836244E+03 -0.28182046901E+03 -0.73766368389E+02  0.49513127267E+03  0.35000000000E+03 0.  0.
       21    1    1    2  504  503 -0.93876968173E+01 -0.69663333200E+02 -0.11751540652E+03  0.13693421638E+03  0.00000000000E+00 0.  1.
<scales pt_clust_1="13000.00000" pt_clust_2="13000.00000" pt_clust_3="70.29302"></scales>
<clustering>
<clus scale="   70.293">  2  5  1 -1</clus>
<clus scale="  526.139">  1  3  2 -1</clus>
<clus scale="  526.139">  1  3  2 -1</clus>
</clustering>
</event>
<event>
 6   2  0.3464723E-02  0.4986635E+03  0.7816531E-02  0.1014128E+00
       21   -1    0    0  501  502  0.00000000000E+00  0.00000000000E+00  0.13939302928E+04  0.13939302928E+04  0.00000000000E+00 0. -1.
       21   -1    0    0  505  503  0.00000000000E+00  0.00000000000E+00 -0.32945988888E+03  0.32945988888E+03  0.00000000000E+00 0. -1.
  1000006    1    1    2  501    0  0.25838369098E+03  0.31360222173E+03  0.61353870130E+03  0.81488540497E+03  0.35000000000E+03 0.  0.
 -1000006    1    1    2    0  504 -0.19206982794E+03 -0.24065623299E+03  0.13635163036E+03  0.48569332750E+03  0.35000000000E+03 0.  0.
       21    1    1    2  504  503 -0.61361816324E+02 -0.10672990269E+02 -0.32432040971E+02  0.70221239703E+02  0.00000000000E+00 0. -1.
       21    1    1    2  505  502 -0.49520467103E+01 -0.62272998475E+02  0.34701211323E+03  0.35259020950E+03  0.00000000000E+00 0. -1.
<scales pt_clust_1="13000.00000" pt_clust_2="13000.00000" pt_clust_3="62.28311" pt_clust_4="62.62797"></scales>
<clustering>
<clus scale="   62.283">  2  5  1 -1</clus>
<clus scale="   62.628">  1  6  2 -1</clus>
<clus scale="  498.664">  1  3  2 -1</clus>
<clus scale="  498.664">  1  3  2 -1</clus>
</clustering>
</event>
<event>
 6   2  0.3464723E-02  0.3802376E+03  0.7816531E-02  0.1050846E+00
        2   -1    0    0  501    0  0.00000000000E+00  0.00000000000E+00  0.72920924454E+03  0.72920924454E+03  0.00000000000E+00 0. -1.
       21   -1    0    0  502  503  0.00000000000E+00  0.00000000000E+00 -0.55377278583E+03  0.55377278583E+03  0.00000000000E+00 0.  1.
  1000006    1    1    2  501    0  0.14965465195E+03 -0.13292667082E+03  0.10512392517E+02  0.40333178038E+03  0.35000000000E+03 0.  0.
 -1000006    1    1    2    0  504 -0.96075642359E+02  0.38319344789E+02 -0.21189350087E+03  0.42201629939E+03  0.35000000000E+03 0.  0.
       21    1    1    2  504  503 -0.16701521223E+02  0.55562586968E+02 -0.16774328406E+02  0.60394701549E+02  0.00000000000E+00 0.  1.
        2    1    1    2  502    0 -0.36877488370E+02  0.39044739064E+02  0.39359189548E+03  0.39723924905E+03  0.00000000000E+00 0. -1.
<scales pt_clust_1="13000.00000" pt_clust_2="13000.00000" pt_clust_3="61.17554" pt_clust_4="53.70699"></scales>
<clustering>
<clus scale="   53.707">  1  6  2 -1</clus>
<clus scale="   61.176">  2  5  1 -1</clus>
<clus scale="  380.238">  2  4  1 -1</clus>
<clus scale="  380.238">  2  3  1 -1</clus>
</clustering>
</event>
<event>
 5   1  0.3464723E-02  0.6312213E+03  0.7816531E-02  0.9842668E-01
       -4   -1    0    0    0  501  0.00000000000E+00  0.00000000000E+00  0.35316034716E+03  0.35316034716E+03  0.00000000000E+00 0. -1.
        4   -1    0    0  503    0  0.00000000000E+00  0.00000000000E+00 -0.15200393661E+04  0.15200393661E+04  0.00000000000E+00 0.  1.
  1000006    1    1    2  502    0  0.37697031979E+03  0.39291635802E+03 -0.50656621910E+03  0.82194842949E+03  0.35000000000E+03 0.  0.
 -1000006    1    1    2    0  501 -0.39019140336E+03 -0.33157417451E+03 -0.30634516479E+03  0.69176450071E+03  0.35000000000E+03 0.  0.
       21    1    1    2  503  502  0.13221083572E+02 -0.61342183519E+02 -0.35396763501E+03  0.35948678302E+03  0.00000000000E+00 0.  1.
<scales pt_clust_1="13000.00000" pt_clust_2="13000.00000" pt_clust_3="62.75078"></scales>
<clustering>
<clus scale="   62.751">  2  5  1 -1</clus>
<clus scale=" 1122.080">  3  4 -1 -1</clus>
<clus scale="  631.221">  2  3  1 -1</clus>
</clustering>
</event>
<event>
 5   1  0.3464723E-02  0.3692269E+03  0.7816531E-02  0.1054989E+00
       21   -1    0    0  501  502  0.00000000000E+00  0.00000000000E+00  0.14145511615E+04  0.14145511615E+04  0.00000000000E+00 0. -1.
       21   -1    0    0  504  503  0.00000000000E+00  0.00000000000E+00 -0.21767506608E+03  0.21767506608E+03  0.00000000000E+00 0. -1.
  1000006    1    1    2  501    0  0.10146903695E+03 -0.26111159969E+02  0.97417668949E+03  0.10404316318E+04  0.35000000000E+03 0.  0.
 -1000006    1    1    2    0  503 -0.14245338824E+03  0.58186656632E+02  0.30861391254E+03  0.49134631559E+03  0.35000000000E+03 0.  0.
       21    1    1    2  504  502  0.40984351294E+02 -0.32075496663E+02 -0.85914506630E+02  0.10044828016E+03  0.00000000000E+00 0. -1.
<scales pt_clust_1="13000.00000" pt_clust_2="13000.00000" pt_clust_3="52.04378"></scales>
<clustering>
<clus scale="   52.044">  2  5  1 -1</clus>
<clus scale="  369.227">  2  4  1 -1</clus>
<clus scale="  369.227">  1  3  2 -1</clus>
</clustering>
</event>
<event>
 4   0  0.3464723E-02  0.4134239E+03  0.7816531E-02  0.1039228E+00
       -2   -1    0    0    0  501  0.00000000000E+00  0.00000000000E+00  0.72313432136E+02  0.72313432136E+02  0.00000000000E+00 0. -1.
        2   -1    0    0  502    0  0.00000000000E+00  0.00000000000E+00 -0.23643539480E+04  0.23643539480E+04  0.00000000000E+00 0.  1.
  1000006    1    1    2  502    0  0.63533347618E+02  0.21067225291E+03 -0.11679242405E+04  0.12389375755E+04  0.35000000000E+03 0.  0.
 -1000006    1    1    2    0  501 -0.63533347618E+02 -0.21067225291E+03 -0.11241162754E+04  0.11977298047E+04  0.35000000000E+03 0.  0.
<scales pt_clust_1="13000.00000" pt_clust_2="13000.00000"></scales>
<clustering>
<clus scale="  562.493">  3  4 -1 -1</clus>
<clus scale="  413.424">  2  3  1 -1</clus>
</clustering>
</event>
<event>
 5   1  0.3464723E-02  0.3605714E+03  0.7816531E-02  0.1058358E+00
       21   -1    0    0  504  502  0.00000000000E+00  0.00000000000E+00  0.11630699366E+04  0.11630699366E+04  0.00000000000E+00 0. -1.
       21   -1    0    0  501  503  0.00000000000E+00  0.00000000000E+00 -0.18093997642E+03  0.18093997642E+03  0.00000000000E+00 0. -1.
  1000006    1    1    2  501    0  0.83394115937E+02  0.46153960930E+02  0.15837175614E+03  0.39581104055E+03  0.35000000000E+03 0.  0.
 -1000006    1    1    2    0  502 -0.35821891993E+01 -0.96351549346E+02  0.72969544718E+03  0.81501650215E+03  0.35000000000E+03 0.  0.
       21    1    1    2  504  503 -0.79811926738E+02  0.50197588416E+02  0.94062756819E+02  0.13318237028E+03  0.00000000000E+00 0.  1.
<scales pt_clust_1="13000.00000" pt_clust_2="13000.00000" pt_clust_3="94.28543"></scales>
<clustering>
<clus scale="   94.285">  2  5  1 -1</clus>
<clus scale="  360.571">  2  3  1 -1</clus>
<clus scale="  360.571">  1  3  2 -1</clus>
</clustering>
</event>
<event>
 5   1  0.3464723E-02  0.6341666E+03  0.7816531E-02  0.9836952E-01
       21   -1    0    0  503  502  0.00000000000E+00  0.00000000000E+00  0.10745827679E+04  0.10745827679E+04  0.00000000000E+00 0. -1.
       21   -1    0    0  504  503  0.00000000000E+00  0.00000000000E+00 -0.84225006208E+03  0.84225006208E+03  0.00000000000E+00 0. -1.
  1000006    1    1    2  501    0 -0.43445217423E+03  0.25424972025E+03 -0.44815558830E+03  0.75943073632E+03  0.35000000000E+03 0.  0.
 -1000006    1    1    2    0  502  0.38510659773E+03 -0.37289808165E+03  0.76956637601E+03  0.10010456923E+04  0.35000000000E+03 0.  0.
       21    1    1    2  504  501  0.49345576498E+02  0.11864836140E+03 -0.89078081902E+02  0.15635640139E+03  0.00000000000E+00 0.  1.
<scales pt_clust_1="13000.00000" pt_clust_2="13000.00000" pt_clust_3="128.50066"></scales>
<clustering>
<clus scale="  128.501">  2  5  1 -1</clus>
<clus scale="  634.167">  2  3  1 -1</clus>
<clus scale="  634.167">  1  3  2 -1</clus>
</clustering>
</event>
<event>
 5   1  0.3464723E-02  0.5146918E+03  0.7816531E-02  0.1010014E+00
        2   -1    0    0  501    0  0.00000000000E+00  0.00000000000E+00  0.14543695209E+04  0.14543695209E+04  0.00000000000E+00 0. -1.
       21   -1    0    0  502  503  0.00000000000E+00  0.00000000000E+00 -0.28741498034E+04  0.28741498034E+04  0.00000000000E+00 0. -1.
  1000006    1    1    2  501    0 -0.17776853746E+03  0.37013563323E+03 -0.60420557573E+03  0.81004099751E+03  0.35000000000E+03 0.  0.
 -1000006    1    1    2    0  503  0.73991415076E+02 -0.36296211117E+03 -0.21349887102E+04  0.21949699352E+04  0.35000000000E+03 0.  0.
        2    1    1    2  502    0  0.10377712238E+03 -0.71735220598E+01  0.13194140034E+04  0.13235083917E+04  0.00000000000E+00 0. -1.
<scales pt_clust_1="13000.00000" pt_clust_2="13000.00000" pt_clust_3="104.02476"></scales>
<clustering>
<clus scale="  104.025">  1  5  2 -1</clus>
<clus scale="  514.692">  2  4  1 -1</clus>
<clus scale="  514.692">  2  3  1 -1</clus>
</clustering>
</event>
<event>
 5   1  0.3464723E-02  0.5880271E+03  0.7816531E-02  0.1000174E+00
       21   -1    0    0  504  502  0.00000000000E+00  0.00000000000E+00  0.29799793526E+03  0.29799793526E+03  0.00000000000E+00 0.  1.
       21   -1    0    0  501  503  0.00000000000E+00  0.00000000000E+00 -0.26833459073E+04  0.26833459073E+04  0.00000000000E+00 0.  1.
  1000006    1    1    2  501    0  0.30608945168E+03 -0.62426496320E+02 -0.10879075062E+04  0.11847491557E+04  0.35000000000E+03 0.  0.
 -1000006    1    1    2    0  502  0.32632664911E+02  0.43594341079E+03 -0.11370411063E+04  0.12674675640E+04  0.35000000000E+03 0.  0.
       21    1    1    2  504  503 -0.33872211659E+03 -0.37351691447E+03 -0.16039935951E+03  0.52912712291E+03  0.00000000000E+00 0.  1.
<scales pt_clust_1="13000.00000" pt_clust_2="13000.00000" pt_clust_3="472.52078"></scales>
<clustering>
<clus scale="  469.135">  2  3  1 -1</clus>
<clus scale="  472.521">  1  5  2 -1</clus>
<clus scale="  588.027">  1  3  2 -1</clus>
</clustering>
</event>
<event>
 4   0  0.3464723E-02  0.4455083E+03  0.7816531E-02  0.1029070E+00
       21   -1    0    0  501  502  0.00000000000E+00  0.00000000000E+00  0.55962602317E+03  0.55962602317E+03  0.00000000000E+00 0. -1.
       21   -1    0    0  502  503  0.00000000000E+00  0.00000000000E+00 -0.35694592058E+03  0.35694592058E+03  0.00000000000E+00 0.  1.
  1000006    1    1    2  501    0  0.26463007263E+03  0.77126950181E+02  0.13800499940E+03  0.46639363379E+03  0.35000000000E+03 0.  0.
 -1000006    1    1    2    0  503 -0.26463007263E+03 -0.77126950181E+02  0.64675103191E+02  0.45017830996E+03  0.35000000000E+03 0.  0.
<scales pt_clust_1="13000.00000" pt_clust_2="13000.00000"></scales>
<clustering>
<clus scale="  445.508">  1  3  2 -1</clus>
<clus scale="  445.508">  1  3  2 -1</clus>
</clustering>
</event>
<event>
 4   0  0.3464723E-02  0.4908805E+03  0.7816531E-02  0.1016187E+00
       21   -1    0    0  501  502  0.00000000000E+00  0.00000000000E+00  0.62499157063E+03  0.62499157063E+03  0.00000000000E+00 0. -1.
       21   -1    0    0  502  503  0.00000000000E+00  0.00000000000E+00 -0.38554717745E+03  0.38554717745E+03  0.00000000000E+00 0. -1.
  1000006    1    1    2  501    0 -0.33549312362E+03 -0.76863855880E+02  0.11994687508E+03  0.50532261099E+03  0.35000000000E+03 0.  0.
 -1000006    1    1    2    0  503  0.33549312362E+03  0.76863855880E+02  0.11949751810E+03  0.50521613709E+03  0.35000000000E+03 0.  0.
<scales pt_clust_1="13000.00000" pt_clust_2="13000.00000"></scales>
<clustering>
<clus scale="  490.881">  1  3  2 -1</clus>
<clus scale="  490.881">  1  3  2 -1</clus>
</clustering>
</event>
<event>
 5   1  0.3464723E-02  0.4382902E+03  0.7816531E-02  0.1031273E+00
       21   -1    0    0  501  503  0.00000000000E+00  0.00000000000E+00  0.21002078310E+04  0.21002078310E+04  0.00000000000E+00 0.  1.
       -4   -1    0    0    0  501  0.00000000000E+00  0.00000000000E+00 -0.13163441647E+04  0.13163441647E+04  0.00000000000E+00 0. -1.
  1000006    1    1    2  502    0  0.95197510180E+02  0.27313733550E+03  0.51756232815E+03  0.68850369172E+03  0.35000000000E+03 0.  0.
 -1000006    1    1    2    0  503  0.89311658229E+01 -0.25938468518E+03  0.14631229689E+04  0.15266266743E+04  0.35000000000E+03 0.  0.
       -4    1    1    2    0  502 -0.10412867600E+03 -0.13752650316E+02 -0.11968216308E+04  0.12014216297E+04  0.00000000000E+00 0. -1.
<scales pt_clust_1="13000.00000" pt_clust_2="13000.00000" pt_clust_3="105.03293"></scales>
<clustering>
<clus scale="  105.033">  2  5  1 -1</clus>
<clus scale="  438.290">  1  4  2 -1</clus>
<clus scale="  438.290">  1  3  2 -1</clus>
</clustering>
</event>
<event>
 6   2  0.3464723E-02  0.4563289E+03  0.7816531E-02  0.1025851E+00
       -3   -1    0    0    0  501  0.00000000000E+00  0.00000000000E+00  0.10776334986E+04  0.10776334986E+04  0.00000000000E+00 0.  1.
       21   -1    0    0  502  503  0.00000000000E+00  0.00000000000E+00 -0.45989141782E+03  0.45989141782E+03  0.00000000000E+00 0. -1.
  1000006    1    1    2  502    0 -0.26122290277E+03 -0.23251148183E+02 -0.17344702106E+03  0.47049111568E+03  0.35000000000E+03 0.  0.
 -1000006    1    1    2    0  501  0.32324282164E+03 -0.73617218337E+02  0.37895920184E+03  0.61320102188E+03  0.35000000000E+03 0.  0.
       21    1    1    2  504  503 -0.32866942332E+02 -0.13532339569E+02  0.11816317178E+02  0.37456447563E+02  0.00000000000E+00 0. -1.
       -3    1    1    2    0  504 -0.29152976542E+02  0.11040070609E+03  0.40041358280E+03  0.41637633126E+03  0.00000000000E+00 0.  1.
<scales pt_clust_1="13000.00000" pt_clust_2="13000.00000" pt_clust_3="35.54378" pt_clust_4="114.10295"></scales>
<clustering>
<clus scale="   35.544">  2  5  1 -1</clus>
<clus scale="  114.103">  1  6  2 -1</clus>
<clus scale="  456.329">  2  3  1 -1</clus>
<clus scale="  456.329">  2  3  1 -1</clus>
</clustering>
</event>
<event>
 6   2  0.3464723E-02  0.4023848E+03  0.7816531E-02  0.1042957E+00
       21   -1    0    0  505  502  0.00000000000E+00  0.00000000000E+00  0.14228430261E+04  0.14228430261E+04  0.00000000000E+00 0. -1.
       21   -1    0    0  501  503  0.00000000000E+00  0.00000000000E+00 -0.15837355809E+03  0.15837355809E+03  0.00000000000E+00 0. -1.
  1000006    1    1    2  501    0  0.17867809978E+03  0.11331194665E+03  0.50263884493E+03  0.64800560879E+03  0.35000000000E+03 0.  0.
 -1000006    1    1    2    0  502 -0.16492063856E+03 -0.88038757544E+02  0.50657822472E+03  0.64348359545E+03  0.35000000000E+03 0.  0.
       21    1    1    2  504  503 -0.54154220779E+02  0.26588460503E+02  0.66172703131E+02  0.89545812296E+02  0.00000000000E+00 0.  1.
       21    1    1    2  505  504  0.40396759560E+02 -0.51861649611E+02  0.18907969527E+03  0.20018156770E+03  0.00000000000E+00 0. -1.
<scales pt_clust_1="13000.00000" pt_clust_2="13000.00000" pt_clust_3="60.32931" pt_clust_4="63.69308"></scales>
<clustering>
<clus scale="   60.329">  2  5  1 -1</clus>
<clus scale="   63.693">  1  6  2 -1</clus>
<clus scale="  402.385">  1  4  2 -1</clus>
<clus scale="  402.385">  1  3  2 -1</clus>
</clustering>
</event>
<event>
 6   2  0.3464723E-02  0.4821454E+03  0.7816531E-02  0.1018547E+00
        4   -1    0    0  501    0  0.00000000000E+00  0.00000000000E+00  0.49276837701E+03  0.49276837701E+03  0.00000000000E+00 0.  1.
       21   -1    0    0  502  503  0.00000000000E+00  0.00000000000E+00 -0.19497630647E+04  0.19497630647E+04  0.00000000000E+00 0. -1.
  1000006    1    1    2  501    0  0.22458487188E+03 -0.26431481128E+03 -0.49709849399E+02  0.49524918301E+03  0.35000000000E+03 0.  0.
 -1000006    1    1    2    0  504 -0.30038026525E+03  0.13571537037E+03 -0.27611016350E+03  0.55442203049E+03  0.35000000000E+03 0.  0.
       21    1    1    2  504  503  0.24352709702E+02  0.59745499501E+02 -0.12469782551E+04  0.12486462061E+04  0.00000000000E+00 0. -1.
        4    1    1    2  502    0  0.51442683664E+02  0.68853941409E+02  0.11580358036E+03  0.14421402212E+03  0.00000000000E+00 0.  1.
<scales pt_clust_1="13000.00000" pt_clust_2="13000.00000" pt_clust_3="64.51805" pt_clust_4="87.21307"></scales>
<clustering>
<clus scale="   64.518">  2  5  1 -1</clus>
<clus scale="   87.213">  1  6  2 -1</clus>
<clus scale="  482.145">  1  3  2 -1</clus>
<clus scale="  482.145">  2  3  1 -1</clus>
</clustering>
</event>
<event>
 5   1  0.3464723E-02  0.3949757E+03  0.7816531E-02  0.1045533E+00
       21   -1    0    0  504  502  0.00000000000E+00  0.00000000000E+00  0.13333627794E+04  0.13333627794E+04  0.00000000000E+00 0. -1.
       21   -1    0    0  502  503  0.00000000000E+00  0.00000000000E+00 -0.30746441132E+03  0.30746441132E+03  0.00000000000E+00 0. -1.
  1000006    1    1    2  501    0 -0.60400167557E+01 -0.21295288992E+03  0.99517762938E+02  0.42165056655E+03  0.35000000000E+03 0.  0.
 -1000006    1    1    2    0  503  0.56014118462E+02  0.14837016123E+03  0.11134616147E+03  0.40006156262E+03  0.35000000000E+03 0.  0.
       21    1    1    2  504  501 -0.49974101706E+02  0.64582728690E+02  0.81503444367E+03  0.81911506155E+03  0.00000000000E+00 0. -1.
<scales pt_clust_1="13000.00000" pt_clust_2="13000.00000" pt_clust_3="81.65990"></scales>
<clustering>
<clus scale="   81.660">  1  5  2 -1</clus>
<clus scale="  394.976">  1  3  2 -1</clus>
<clus scale="  394.976">  1  3  2 -1</clus>
</clustering>
</event>
<event>
 5   1  0.3464723E-02  0.3692428E+03  0.7816531E-02  0.1054983E+00
       21   -1    0    0  501  502  0.00000000000E+00  0.00000000000E+00  0.26936899400E+03  0.26936899400E+03  0.00000000000E+00 0. -1.
       21   -1    0    0  504  503  0.00000000000E+00  0.00000000000E+00 -0.11387380931E+04  0.11387380931E+04  0.00000000000E+00 0. -1.
  1000006    1    1    2  501    0  0.10366088298E+01 -0.95187505761E+02 -0.10495041725E+02  0.36286620360E+03  0.35000000000E+03 0.  0.
 -1000006    1    1    2    0  503  0.74281267451E+02  0.16391407102E+03 -0.35133726243E+03  0.52756364672E+03  0.35000000000E+03 0.  0.
       21    1    1    2  504  502 -0.75317876281E+02 -0.68726565260E+02 -0.50753679495E+03  0.51767723679E+03  0.00000000000E+00 0. -1.
<scales pt_clust_1="13000.00000" pt_clust_2="13000.00000" pt_clust_3="101.96138"></scales>
<clustering>
<clus scale="  101.961">  2  5  1 -1</clus>
<clus scale="  369.243">  1  3  2 -1</clus>
<clus scale="  369.243">  1  3  2 -1</clus>
</clustering>
</event>
<event>
 6   2  0.3464723E-02  0.4378024E+03  0.7816531E-02  0.1031423E+00
       21   -1    0    0  505  502  0.00000000000E+00  0.00000000000E+00  0.20291993720E+03  0.20291993720E+03  0.00000000000E+00 0.  1.
       21   -1    0    0  504  503  0.00000000000E+00  0.00000000000E+00 -0.13592339594E+04  0.13592339594E+04  0.00000000000E+00 0.  1.
  1000006    1    1    2  501    0  0.53775524231E+02 -0.19923486272E+03 -0.57481239110E+03  0.70391449942E+03  0.35000000000E+03 0.  0.
 -1000006    1    1    2    0  502 -0.11816516896E+03  0.29545653298E+03 -0.35198272458E+03  0.58961801909E+03  0.35000000000E+03 0.  0.
       21    1    1    2  504  501  0.37409939298E+02 -0.62687876480E+02 -0.20812682442E+03  0.22055849215E+03  0.00000000000E+00 0. -1.
       21    1    1    2  505  503  0.26979705436E+02 -0.33533793777E+02 -0.21392082152E+02  0.48062885986E+02  0.00000000000E+00 0. -1.
<scales pt_clust_1="13000.00000" pt_clust_2="13000.00000" pt_clust_3="74.39956" pt_clust_4="43.03975"></scales>
<clustering>
<clus scale="   43.040">  1  6  2 -1</clus>
<clus scale="   74.400">  2  5  1 -1</clus>
<clus scale="  437.802">  2  3  1 -1</clus>
<clus scale="  437.802">  1  3  2 -1</clus>
</clustering>
</event>
<event>
 5   1  0.3464723E-02  0.4462624E+03  0.7816531E-02  0.1028843E+00
       21   -1    0    0  504  502  0.00000000000E+00  0.00000000000E+00  0.32732072148E+03  0.32732072148E+03  0.00000000000E+00 0. -1.
       21   -1    0    0  502  503  0.00000000000E+00  0.00000000000E+00 -0.11185920462E+04  0.11185920462E+04  0.00000000000E+00 0.  1.
  1000006    1    1    2  501    0  0.21379596172E+03 -0.15740594927E+03 -0.36901737741E+02  0.44084814206E+03  0.35000000000E+03 0.  0.
 -1000006    1    1    2    0  503 -0.18983319359E+03  0.20754461224E+03 -0.81019363351E+03  0.92629645969E+03  0.35000000000E+03 0.  0.
       21    1    1    2  504  501 -0.23962768131E+02 -0.50138662963E+02  0.55824046581E+02  0.78768165885E+02  0.00000000000E+00 0. -1.
<scales pt_clust_1="13000.00000" pt_clust_2="13000.00000" pt_clust_3="55.57067"></scales>
<clustering>
<clus scale="   55.571">  1  5  2 -1</clus>
<clus scale="  446.262">  2  4  1 -1</clus>
<clus scale="  446.262">  1  3  2 -1</clus>
</clustering>
</event>
<event>
 6   2  0.3464723E-02  0.4922744E+03  0.7816531E-02  0.1015815E+00
       21   -1    0    0  505  502  0.00000000000E+00  0.00000000000E+00  0.54607568111E+03  0.54607568111E+03  0.00000000000E+00 0. -1.
       21   -1    0    0  501  503  0.00000000000E+00  0.00000000000E+00 -0.59141701249E+03  0.59141701249E+03  0.00000000000E+00 0.  1.
  1000006    1    1    2  501    0 -0.33775649077E+02 -0.33304645969E+03 -0.17395660842E+03  0.51460823973E+03  0.35000000000E+03 0.  0.
 -1000006    1    1    2    0  504  0.61469506288E+02  0.36090781168E+03  0.68531086964E+02  0.51110611287E+03  0.35000000000E+03 0.  0.
       21    1    1    2  504  502 -0.33393811637E+01  0.30671275425E+02  0.19042819085E+02  0.36256138259E+02  0.00000000000E+00 0. -1.
       21    1    1    2  505  503 -0.24354476047E+02 -0.58532627411E+02  0.41041370982E+02  0.75522202744E+02  0.00000000000E+00 0. -1.
<scales pt_clust_1="13000.00000" pt_clust_2="13000.00000" pt_clust_3="30.85253" pt_clust_4="60.38108"></scales>
<clustering>
<clus scale="   30.853">  1  5  2 -1</clus>
<clus scale="   60.381">  1  6  2 -1</clus>
<clus scale="  492.274">  1  4  2 -1</clus>
<clus scale="  492.274">  1  3  2 -1</clus>
</clustering>
</event>
<event>
 5   1  0.3464723E-02  0.4181810E+03  0.7816531E-02  0.1037660E+00
       21   -1    0    0  501  502  0.00000000000E+00  0.00000000000E+00  0.74737794147E+03  0.74737794147E+03  0.00000000000E+00 0.  1.
       21   -1    0    0  504  503  0.00000000000E+00  0.00000000000E+00 -0.33325522843E+03  0.33325522843E+03  0.00000000000E+00 0. -1.
  1000006    1    1    2  501    0  0.15760739285E+03 -0.16673027396E+03  0.25986635941E+03  0.49261506198E+03  0.35000000000E+03 0.  0.
 -1000006    1    1    2    0  503 -0.11000140027E+03  0.20468599460E+03  0.23925263364E+03  0.48346508369E+03  0.35000000000E+03 0.  0.
       21    1    1    2  504  502 -0.47605992572E+02 -0.37955720641E+02 -0.84996280013E+02  0.10455302422E+03  0.00000000000E+00 0. -1.
<scales pt_clust_1="13000.00000" pt_clust_2="13000.00000" pt_clust_3="60.88487"></scales>
<clustering>
<clus scale="   60.885">  2  5  1 -1</clus>
<clus scale="  418.181">  1  3  2 -1</clus>
<clus scale="  418.181">  1  3  2 -1</clus>
</clustering>
</event>
<event>
 6   2  0.3464723E-02  0.4176146E+03  0.7816531E-02  0.1037845E+00
       21   -1    0    0  502  503  0.00000000000E+00  0.00000000000E+00  0.11905176708E+04  0.11905176708E+04  0.00000000000E+00 0. -1.
        2   -1    0    0  504    0  0.00000000000E+00  0.00000000000E+00 -0.16112656402E+04  0.16112656402E+04  0.00000000000E+00 0. -1.
  1000006    1    1    2  501    0  0.11137789720E+03  0.23689024279E+03  0.16826768080E+03  0.46833325263E+03  0.35000000000E+03 0.  0.
 -1000006    1    1    2    0  503 -0.27307756070E+03  0.31414416790E+02  0.62645499246E+03  0.76844263112E+03  0.35000000000E+03 0.  0.
       21    1    1    2  504  501 -0.21820018555E+03  0.25705950179E+03 -0.39680880943E+03  0.52071886818E+03  0.00000000000E+00 0.  1.
        2    1    1    2  502    0  0.37989984905E+03 -0.52536416138E+03 -0.81866183324E+03  0.10442885591E+04  0.00000000000E+00 0. -1.
<scales pt_clust_1="13000.00000" pt_clust_2="13000.00000" pt_clust_3="337.18082" pt_clust_4="377.23066"></scales>
<clustering>
<clus scale="  337.181">  2  5  1 -1</clus>
<clus scale="  377.231">  2  6  1 -1</clus>
<clus scale="  417.615">  1  4  2 -1</clus>
<clus scale="  417.615">  1  3  2 -1</clus>
</clustering>
</event>
<event>
 4   0  0.3464723E-02  0.3858254E+03  0.7816531E-02  0.1048801E+00
       21   -1    0    0  501  502  0.00000000000E+00  0.00000000000E+00  0.79430403312E+03  0.79430403312E+03  0.00000000000E+00 0. -1.
       21   -1    0    0  502  503  0.00000000000E+00  0.00000000000E+00 -0.18808824110E+03  0.18808824110E+03  0.00000000000E+00 0. -1.
  1000006    1    1    2  501    0 -0.10271963080E+03 -0.12573735045E+03  0.33258534454E+03  0.50938611608E+03  0.35000000000E+03 0.  0.
 -1000006    1    1    2    0  503  0.10271963080E+03  0.12573735045E+03  0.27363044748E+03  0.47300615814E+03  0.35000000000E+03 0.  0.
<scales pt_clust_1="13000.00000" pt_clust_2="13000.00000"></scales>
<clustering>
<clus scale="  385.825">  1  3  2 -1</clus>
<clus scale="  385.825">  1  3  2 -1</clus>
</clustering>
</event>
<event>
 5   1  0.3464723E-02  0.4460110E+03  0.7816531E-02  0.1028918E+00
       21   -1    0    0  501  502  0.00000000000E+00  0.00000000000E+00  0.13378349400E+04  0.13378349400E+04  0.00000000000E+00 0. -1.
       21   -1    0    0  504  503  0.00000000000E+00  0.00000000000E+00 -0.21452070929E+03  0.21452070929E+03  0.00000000000E+00 0. -1.
  1000006    1    1    2  501    0 -0.11370737062E+03 -0.26801293360E+03  0.64105946210E+03  0.78626810482E+03  0.35000000000E+03 0.  0.
 -1000006    1    1    2    0  503  0.13019984079E+03  0.23630703198E+03  0.20607731782E+03  0.48760729365E+03  0.35000000000E+03 0.  0.
       21    1    1    2  504  502 -0.16492470167E+02  0.31705901619E+02  0.27617745083E+03  0.27848025086E+03  0.00000000000E+00 0. -1.
<scales pt_clust_1="13000.00000" pt_clust_2="13000.00000" pt_clust_3="35.73886"></scales>
<clustering>
<clus scale="   35.739">  1  5  2 -1</clus>
<clus scale="  446.011">  1  3  2 -1</clus>
<clus scale="  446.011">  1  3  2 -1</clus>
</clustering>
</event>
<event>
 4   0  0.3464723E-02  0.3905604E+03  0.7816531E-02  0.1047098E+00
       21   -1    0    0  503  502  0.00000000000E+00  0.00000000000E+00  0.29151611972E+03  0.29151611972E+03  0.00000000000E+00 0.  1.
       21   -1    0    0  501  503  0.00000000000E+00  0.00000000000E+00 -0.55050735257E+03  0.55050735257E+03  0.00000000000E+00 0.  1.
  1000006    1    1    2  501    0 -0.14775216405E+03  0.90590924720E+02 -0.22316777520E+03  0.44982360266E+03  0.35000000000E+03 0.  0.
 -1000006    1    1    2    0  502  0.14775216405E+03 -0.90590924720E+02 -0.35823457654E+02  0.39219986963E+03  0.35000000000E+03 0.  0.
<scales pt_clust_1="13000.00000" pt_clust_2="13000.00000"></scales>
<clustering>
<clus scale="  390.560">  2  3  1 -1</clus>
<clus scale="  390.560">  1  3  2 -1</clus>
</clustering>
</event>
<event>
 6   2  0.3464723E-02  0.3687258E+03  0.7816531E-02  0.1055181E+00
       21   -1    0    0  504  502  0.00000000000E+00  0.00000000000E+00  0.99979921947E+03  0.99979921947E+03  0.00000000000E+00 0.  1.
       21   -1    0    0  501  503  0.00000000000E+00  0.00000000000E+00 -0.66989876542E+03  0.66989876542E+03  0.00000000000E+00 0.  1.
  1000006    1    1    2  501    0  0.12196043908E+03  0.59607362267E+02 -0.41123353758E+03  0.55681272325E+03  0.35000000000E+03 0.  0.
 -1000006    1    1    2    0  505 -0.14477716603E+03 -0.10850909775E+03  0.15656769730E+03  0.42396709298E+03  0.35000000000E+03 0.  0.
       21    1    1    2  504  503 -0.61919176148E+02 -0.10600838068E+00 -0.28445150868E+02  0.68140459498E+02  0.00000000000E+00 0.  1.
       21    1    1    2  505  502  0.84735903094E+02  0.49007743860E+02  0.61301144520E+03  0.62077770915E+03  0.00000000000E+00 0.  1.
<scales pt_clust_1="13000.00000" pt_clust_2="13000.00000" pt_clust_3="61.91927" pt_clust_4="97.55237"></scales>
<clustering>
<clus scale="   61.919">  2  5  1 -1</clus>
<clus scale="   97.552">  1  6  2 -1</clus>
<clus scale="  368.726">  2  3  1 -1</clus>
<clus scale="  368.726">  1  3  2 -1</clus>
</clustering>
</event>
<event>
 6   2  0.3464723E-02  0.6457139E+03  0.7816531E-02  0.9814855E-01
       21   -1    0    0  504  502  0.00000000000E+00  0.00000000000E+00  0.10609920186E+04  0.10609920186E+04  0.00000000000E+00 0.  1.
       21   -1    0    0  501  503  0.00000000000E+00  0.00000000000E+00 -0.18744603975E+04  0.18744603975E+04  0.00000000000E+00 0. -1.
  1000006    1    1    2  501    0  0.37331631137E+03  0.38553923593E+03 -0.11224934678E+04  0.12924771395E+04  0.35000000000E+03 0.  0.
 -1000006    1    1    2    0  505 -0.46084923981E+03 -0.32014945600E+03 -0.49507958344E+03  0.82612437923E+03  0.35000000000E+03 0.  0.
       21    1    1    2  504  503  0.46697815680E+02 -0.71737625496E+02  0.32902024572E+03  0.33997249153E+03  0.00000000000E+00 0.  1.
       21    1    1    2  505  502  0.40835112761E+02  0.63478455685E+01  0.47508442660E+03  0.47687840585E+03  0.00000000000E+00 0. -1.
<scales pt_clust_1="13000.00000" pt_clust_2="13000.00000" pt_clust_3="97.69961" pt_clust_4="41.32556"></scales>
<clustering>
<clus scale="   41.326">  1  6  2 -1</clus>
<clus scale="   97.700">  1  5  2 -1</clus>
<clus scale="  645.714">  2  3  1 -1</clus>
<clus scale="  645.714">  1  3  2 -1</clus>
</clustering>
</event>
<event>
 5   1  0.3464723E-02  0.5152650E+03  0.7816531E-02  0.1019917E+00
        2   -1    0    0  501    0  0.00000000000E+00  0.00000000000E+00  0.12879526443E+04  0.12879526443E+04  0.00000000000E+00 0.  1.
       21   -1    0    0  502  503  0.00000000000E+00  0.00000000000E+00 -0.10956964141E+04  0.10956964141E+04  0.00000000000E+00 0.  1.
  1000006    1    1    2  501    0  0.26630478673E+03 -0.71639290139E+02 -0.75971219794E+03  0.88074573574E+03  0.35000000000E+03 0.  0.
 -1000006    1    1    2    0  503  0.56903103782E+02 -0.13365866292E+03 -0.92828889057E+02  0.39015356469E+03  0.35000000000E+03 0.  0.
        2    1    1    2  502    0 -0.32320789051E+03  0.20529795306E+03  0.10447973171E+04  0.11127497580E+04  0.00000000000E+00 0.  1.
<scales pt_clust_1="13000.00000" pt_clust_2="13000.00000" pt_clust_3="378.15085"></scales>
<clustering>
<clus scale="  378.949">  2  4  1 -1</clus>
<clus scale="  378.151">  1  5  2 -1</clus>
<clus scale="  515.265">  2  3  1 -1</clus>
</clustering>
</event>
<event>
 4   0  0.3464723E-02  0.5281527E+03  0.7816531E-02  0.1006681E+00
       21   -1    0    0  501  502  0.00000000000E+00  0.00000000000E+00  0.24105142155E+04  0.24105142155E+04  0.00000000000E+00 0. -1.
       21   -1    0    0  502  503  0.00000000000E+00  0.00000000000E+00 -0.16196974548E+03  0.16196974548E+03  0.00000000000E+00 0.  1.
  1000006    1    1    2  501    0 -0.17851088347E+03  0.35295771842E+03  0.18115926935E+04  0.18870117577E+04  0.35000000000E+03 0.  0.
 -1000006    1    1    2    0  503  0.17851088347E+03 -0.35295771842E+03  0.43695177656E+03  0.68547220334E+03  0.35000000000E+03 0.  0.
<scales pt_clust_1="13000.00000" pt_clust_2="13000.00000"></scales>
<clustering>
<clus scale="  528.153">  1  3  2 -1</clus>
<clus scale="  528.153">  1  3  2 -1</clus>
</clustering>
</event>
<event>
 5   1  0.3464723E-02  0.3812007E+03  0.7816531E-02  0.1050491E+00
       -3   -1    0    0    0  501  0.00000000000E+00  0.00000000000E+00  0.14378158383E+04  0.14378158383E+04  0.00000000000E+00 0.  1.
       21   -1    0    0  502  503  0.00000000000E+00  0.00000000000E+00 -0.21097577343E+03  0.21097577343E+03  0.00000000000E+00 0.  1.
  1000006    1    1    2  502    0  0.63941733226E+02 -0.16274727532E+03  0.14361588193E+03  0.41677421035E+03  0.35000000000E+03 0.  0.
 -1000006    1    1    2    0  501 -0.18997105965E+02  0.11162262489E+03  0.39246400828E+03  0.53791123637E+03  0.35000000000E+03 0.  0.
       -3    1    1    2    0  503 -0.44944627262E+02  0.51124650430E+02  0.69076017468E+03  0.69410616502E+03  0.00000000000E+00 0.  1.
<scales pt_clust_1="13000.00000" pt_clust_2="13000.00000" pt_clust_3="68.07165"></scales>
<clustering>
<clus scale="   68.072">  1  5  2 -1</clus>
<clus scale="  381.201">  1  4  2 -1</clus>
<clus scale="  381.201">  2  3  1 -1</clus>
</clustering>
</event>
<event>
 5   1  0.3464723E-02  0.3628878E+03  0.7816531E-02  0.1057446E+00
       21   -1    0    0  501  502  0.00000000000E+00  0.00000000000E+00  0.12749165699E+03  0.12749165699E+03  0.00000000000E+00 0. -1.
       21   -1    0    0  504  503  0.00000000000E+00  0.00000000000E+00 -0.18031875321E+04  0.18031875321E+04  0.00000000000E+00 0. -1.
  1000006    1    1    2  501    0  0.15046812232E+03 -0.81744955438E+01 -0.38182095321E+03  0.53943926305E+03  0.35000000000E+03 0.  0.
 -1000006    1    1    2    0  503 -0.70197227472E+02 -0.45921285735E+02 -0.12124754512E+04  0.12647660397E+04  0.35000000000E+03 0.  0.
       21    1    1    2  504  502 -0.80270894844E+02  0.54095781279E+02 -0.81399470666E+02  0.12647388638E+03  0.00000000000E+00 0.  1.
<scales pt_clust_1="13000.00000" pt_clust_2="13000.00000" pt_clust_3="96.79757"></scales>
<clustering>
<clus scale="   96.798">  1  5  2 -1</clus>
<clus scale="  362.888">  1  3  2 -1</clus>
<clus scale="  362.888">  1  3  2 -1</clus>
</clustering>
</event>
<event>
 5   1  0.3464723E-02  0.3747802E+03  0.7816531E-02  0.1052880E+00
       21   -1    0    0  504  502  0.00000000000E+00  0.00000000000E+00  0.12483339316E+03  0.12483339316E+03  0.00000000000E+00 0.  1.
       21   -1    0    0  501  503  0.00000000000E+00  0.00000000000E+00 -0.14556295650E+04  0.14556295650E+04  0.00000000000E+00 0.  1.
  1000006    1    1    2  501    0  0.85259400583E+02  0.12038499099E+03 -0.80210383444E+03  0.88748649154E+03  0.35000000000E+03 0.  0.
 -1000006    1    1    2    0  502 -0.44178242525E+02 -0.10919909497E+03 -0.53485238503E+03  0.64995633179E+03  0.35000000000E+03 0.  0.
       21    1    1    2  504  503 -0.41081158057E+02 -0.11185896023E+02  0.61600476028E+01  0.43020134863E+02  0.00000000000E+00 0. -1.
<scales pt_clust_1="13000.00000" pt_clust_2="13000.00000" pt_clust_3="42.57682"></scales>
<clustering>
<clus scale="   42.577">  1  5  2 -1</clus>
<clus scale="  374.780">  2  3  1 -1</clus>
<clus scale="  374.780">  1  3  2 -1</clus>
</clustering>
</event>
<event>
 6   2  0.3464723E-02  0.3689589E+03  0.7816531E-02  0.1055092E+00
       21   -1    0    0  501  502  0.00000000000E+00  0.00000000000E+00  0.19200291024E+03  0.19200291024E+03  0.00000000000E+00 0. -1.
       21   -1    0    0  504  503  0.00000000000E+00  0.00000000000E+00 -0.22236891096E+04  0.22236891096E+04  0.00000000000E+00 0. -1.
  1000006    1    1    2  501    0 -0.10330211253E+02  0.63966054787E+02 -0.16088538947E+03  0.39061807174E+03  0.35000000000E+03 0.  0.
 -1000006    1    1    2    0  503  0.11592875522E+02 -0.12441650867E+03 -0.18903047849E+04  0.19264906027E+04  0.35000000000E+03 0.  0.
       21    1    1    2  504  505 -0.36507060743E+02  0.45455408285E+02  0.13019167096E+02  0.59736574545E+02  0.00000000000E+00 0.  1.
       21    1    1    2  505  502  0.35244396474E+02  0.14995045594E+02  0.64848078890E+01  0.38846770890E+02  0.00000000000E+00 0. -1.
<scales pt_clust_1="13000.00000" pt_clust_2="13000.00000" pt_clust_3="56.62770" pt_clust_4="38.30168"></scales>
<clustering>
<clus scale="   38.302">  1  6  2 -1</clus>
<clus scale="   56.628">  1  5  2 -1</clus>
<clus scale="  368.959">  1  3  2 -1</clus>
<clus scale="  368.959">  1  3  2 -1</clus>
</clustering>
</event>
<event>
 4   0  0.3464723E-02  0.4429643E+03  0.7816531E-02  0.1029841E+00
       21   -1    0    0  503  502  0.00000000000E+00  0.00000000000E+00  0.12820450428E+03  0.12820450428E+03  0.00000000000E+00 0. -1.
       21   -1    0    0  501  503  0.00000000000E+00  0.00000000000E+00 -0.16922402765E+04  0.16922402765E+04  0.00000000000E+00 0. -1.
  1000006    1    1    2  501    0  0.24144560332E+03  0.12418280578E+03 -0.10634164494E+04  0.11519860647E+04  0.35000000000E+03 0.  0.
 -1000006    1    1    2    0  502 -0.24144560332E+03 -0.12418280578E+03 -0.50061932285E+03  0.66845871602E+03  0.35000000000E+03 0.  0.
<scales pt_clust_1="13000.00000" pt_clust_2="13000.00000"></scales>
<clustering>
<clus scale="  442.964">  2  3  1 -1</clus>
<clus scale="  442.964">  1  3  2 -1</clus>
</clustering>
</event>
<event>
 5   1  0.3464723E-02  0.3985651E+03  0.7816531E-02  0.1044278E+00
       21   -1    0    0  501  502  0.00000000000E+00  0.00000000000E+00  0.80261094655E+03  0.80261094655E+03  0.00000000000E+00 0.  1.
       21   -1    0    0  502  503  0.00000000000E+00  0.00000000000E+00 -0.30958802890E+03  0.30958802890E+03  0.00000000000E+00 0.  1.
  1000006    1    1    2  501    0  0.12572016608E+03 -0.17601230364E+03  0.32571046799E+03  0.52476013583E+03  0.35000000000E+03 0.  0.
 -1000006    1    1    2    0  504 -0.82066060938E+02  0.14327769001E+03  0.26950680777E+03  0.47159013375E+03  0.35000000000E+03 0.  0.
       21    1    1    2  504  503 -0.43654105143E+02  0.32734613630E+02 -0.10219435810E+03  0.11584870588E+03  0.00000000000E+00 0.  1.
<scales pt_clust_1="13000.00000" pt_clust_2="13000.00000" pt_clust_3="54.56405"></scales>
<clustering>
<clus scale="   54.564">  2  5  1 -1</clus>
<clus scale="  398.565">  2  4  1 -1</clus>
<clus scale="  398.565">  1  3  2 -1</clus>
</clustering>
</event>
<event>
 4   0  0.3464723E-02  0.4285011E+03  0.7816531E-02  0.1034335E+00
       21   -1    0    0  503  502  0.00000000000E+00  0.00000000000E+00  0.40917888684E+03  0.40917888684E+03  0.00000000000E+00 0.  1.
       21   -1    0    0  501  503  0.00000000000E+00  0.00000000000E+00 -0.52980108391E+03  0.52980108391E+03  0.00000000000E+00 0.  1.
  1000006    1    1    2  501    0 -0.39532300495E+02 -0.24402942850E+03 -0.24395972957E+03  0.49308165085E+03  0.35000000000E+03 0.  0.
 -1000006    1    1    2    0  502  0.39532300495E+02  0.24402942850E+03  0.12333753251E+03  0.44589831989E+03  0.35000000000E+03 0.  0.
<scales pt_clust_1="13000.00000" pt_clust_2="13000.00000"></scales>
<clustering>
<clus scale="  428.501">  2  3  1 -1</clus>
<clus scale="  428.501">  1  3  2 -1</clus>
</clustering>
</event>
<event>
 4   0  0.3464723E-02  0.3550202E+03  0.7816531E-02  0.1060573E+00
       21   -1    0    0  503  502  0.00000000000E+00  0.00000000000E+00  0.14942944197E+04  0.14942944197E+04  0.00000000000E+00 0.  1.
       21   -1    0    0  501  503  0.00000000000E+00  0.00000000000E+00 -0.88149931496E+02  0.88149931496E+02  0.00000000000E+00 0.  1.
  1000006    1    1    2  501    0 -0.43497619486E+00  0.59490699955E+02  0.53873211997E+03  0.64519115746E+03  0.35000000000E+03 0.  0.
 -1000006    1    1    2    0  502  0.43497619486E+00 -0.59490699955E+02  0.86741236820E+03  0.93725319369E+03  0.35000000000E+03 0.  0.
<scales pt_clust_1="13000.00000" pt_clust_2="13000.00000"></scales>
<clustering>
<clus scale="  355.020">  2  3  1 -1</clus>
<clus scale="  355.020">  1  3  2 -1</clus>
</clustering>
</event>
<event>
 6   2  0.3464723E-02  0.3548985E+03  0.7816531E-02  0.1060622E+00
       21   -1    0    0  503  502  0.00000000000E+00  0.00000000000E+00  0.64482224550E+03  0.64482224550E+03  0.00000000000E+00 0. -1.
       21   -1    0    0  505  503  0.00000000000E+00  0.00000000000E+00 -0.75741008382E+03  0.75741008382E+03  0.00000000000E+00 0. -1.
  1000006    1    1    2  501    0  0.92286183917E+02 -0.33309491032E+02  0.69880406865E+02  0.37014798824E+03  0.35000000000E+03 0.  0.
 -1000006    1    1    2    0  502  0.15115350224E+03 -0.40592888017E+02  0.29752664844E+03  0.48530121608E+03  0.35000000000E+03 0.  0.
       21    1    1    2  504  501 -0.19032983827E+03  0.80603352125E+02 -0.35465435740E+03  0.41049002537E+03  0.00000000000E+00 0. -1.
       21    1    1    2  505  504 -0.53109847888E+02 -0.67009730759E+01 -0.12534053624E+03  0.13629309963E+03  0.00000000000E+00 0. -1.
<scales pt_clust_1="13000.00000" pt_clust_2="13000.00000" pt_clust_3="261.87151" pt_clust_4="31.58607"></scales>
<clustering>
<clus scale="   31.586">  5  6 -1 -1</clus>
<clus scale="  261.872">  2  5  1 -1</clus>
<clus scale="  354.898">  1  4  2 -1</clus>
<clus scale="  354.898">  1  3  2 -1</clus>
</clustering>
</event>
<event>
 6   2  0.3464723E-02  0.4737044E+03  0.7816531E-02  0.1020880E+00
       21   -1    0    0  502  503  0.00000000000E+00  0.00000000000E+00  0.10598415206E+03  0.10598415206E+03  0.00000000000E+00 0. -1.
        2   -1    0    0  501    0  0.00000000000E+00  0.00000000000E+00 -0.35790687048E+04  0.35790687048E+04  0.00000000000E+00 0.  1.
  1000006    1    1    2  501    0  0.32295665929E+03 -0.10934307726E+03 -0.16090973146E+04  0.16816512957E+04  0.35000000000E+03 0.  0.
 -1000006    1    1    2    0  504 -0.31611871527E+03 -0.56568055168E+02 -0.14169415638E+04  0.14944411605E+04  0.35000000000E+03 0.  0.
       21    1    1    2  504  503  0.24805163993E+02  0.13435457334E+03 -0.12937048429E+03  0.18815730053E+03  0.00000000000E+00 0. -1.
        2    1    1    2  502    0 -0.31643108013E+02  0.31556559089E+02 -0.31767519006E+03  0.32080310018E+03  0.00000000000E+00 0.  1.
<scales pt_clust_1="13000.00000" pt_clust_2="13000.00000" pt_clust_3="137.86845" pt_clust_4="44.68896"></scales>
<clustering>
<clus scale="   44.689">  2  6  1 -1</clus>
<clus scale="  137.868">  1  5  2 -1</clus>
<clus scale="  473.704">  2  3  1 -1</clus>
<clus scale="  473.704">  1  3  2 -1</clus>
</clustering>
</event>
<event>
 6   2  0.3464723E-02  0.3556540E+03  0.7816531E-02  0.1060318E+00
       21   -1    0    0  505  502  0.00000000000E+00  0.00000000000E+00  0.24473889504E+03  0.24473889504E+03  0.00000000000E+00 0.  1.
       21   -1    0    0  504  503  0.00000000000E+00  0.00000000000E+00 -0.11145297808E+04  0.11145297808E+04  0.00000000000E+00 0.  1.
  1000006    1    1    2  501    0 -0.85893768870E+02 -0.31594692640E+02 -0.39057121363E+03  0.53237377570E+03  0.35000000000E+03 0.  0.
 -1000006    1    1    2    0  502  0.25427770597E+02  0.52522153367E+02 -0.14039713470E+02  0.35510880257E+03  0.35000000000E+03 0.  0.
       21    1    1    2  504  501  0.29458301133E+02 -0.24861972090E+02 -0.14336575150E+03  0.14845756251E+03  0.00000000000E+00 0. -1.
       21    1    1    2  505  503  0.31007697139E+02  0.39345113634E+01 -0.32181420713E+03  0.32332853504E+03  0.00000000000E+00 0.  1.
<scales pt_clust_1="13000.00000" pt_clust_2="13000.00000" pt_clust_3="42.65691" pt_clust_4="31.25632"></scales>
<clustering>
<clus scale="   31.256">  2  6  1 -1</clus>
<clus scale="   42.657">  2  5  1 -1</clus>
<clus scale="  355.654">  1  4  2 -1</clus>
<clus scale="  355.654">  1  3  2 -1</clus>
</clustering>
</event>
<event>
 5   1  0.3464723E-02  0.6643332E+03  0.7816531E-02  0.9780249E-01
       21   -1    0    0  502  503  0.00000000000E+00  0.00000000000E+00  0.41333759229E+03  0.41333759229E+03  0.00000000000E+00 0.  1.
        1   -1    0    0  501    0  0.00000000000E+00  0.00000000000E+00 -0.14222502075E+04  0.14222502075E+04  0.00000000000E+00 0. -1.
  1000006    1    1    2  501    0 -0.63063182858E+02  0.56978345537E+03 -0.36845794651E+03  0.76608838224E+03  0.35000000000E+03 0.  0.
 -1000006    1    1    2    0  503  0.35209781438E+02 -0.55615942927E+03 -0.29246505170E+03  0.72013113107E+03  0.35000000000E+03 0.  0.
        1    1    1    2  502    0  0.27853401420E+02 -0.13624026107E+02 -0.34798961702E+03  0.34936828650E+03  0.00000000000E+00 0. -1.
<scales pt_clust_1="13000.00000" pt_clust_2="13000.00000" pt_clust_3="31.00687"></scales>
<clustering>
<clus scale="   31.007">  2  5  1 -1</clus>
<clus scale="  664.333">  1  4  2 -1</clus>
<clus scale="  664.333">  1  3  2 -1</clus>
</clustering>
</event>
<event>
 4   0  0.3464723E-02  0.3978608E+03  0.7816531E-02  0.1044523E+00
       21   -1    0    0  503  502  0.00000000000E+00  0.00000000000E+00  0.32160967771E+03  0.32160967771E+03  0.00000000000E+00 0. -1.
       21   -1    0    0  501  503  0.00000000000E+00  0.00000000000E+00 -0.12209076751E+04  0.12209076751E+04  0.00000000000E+00 0.  1.
  1000006    1    1    2  501    0 -0.18295551290E+03 -0.48171687754E+02 -0.10455006546E+04  0.11186442017E+04  0.35000000000E+03 0.  0.
 -1000006    1    1    2    0  502  0.18295551290E+03  0.48171687754E+02  0.14620265726E+03  0.42387315106E+03  0.35000000000E+03 0.  0.
<scales pt_clust_1="13000.00000" pt_clust_2="13000.00000"></scales>
<clustering>
<clus scale="  397.861">  2  3  1 -1</clus>
<clus scale="  397.861">  1  3  2 -1</clus>
</clustering>
</event>
<event>
 6   2  0.3464723E-02  0.3707375E+03  0.7816531E-02  0.1054411E+00
        2   -1    0    0  501    0  0.00000000000E+00  0.00000000000E+00  0.22808153920E+04  0.22808153920E+04  0.00000000000E+00 0.  1.
       21   -1    0    0  504  503  0.00000000000E+00  0.00000000000E+00 -0.45080559699E+03  0.45080559699E+03  0.00000000000E+00 0. -1.
  1000006    1    1    2  501    0  0.34839475144E+02  0.97359877182E+02 -0.21125418735E+02  0.36556670804E+03  0.35000000000E+03 0.  0.
 -1000006    1    1    2    0  503  0.10079358201E+03 -0.13431558209E+03 -0.89898616244E+02  0.39847431908E+03  0.35000000000E+03 0.  0.
       21    1    1    2  504  502 -0.32934335840E+02 -0.11708869464E+02  0.14736624907E+02  0.37933312734E+02  0.00000000000E+00 0. -1.
        2    1    1    2  502    0 -0.10269872132E+03  0.48664574371E+02  0.19262972051E+04  0.19296466491E+04  0.00000000000E+00 0.  1.
<scales pt_clust_1="13000.00000" pt_clust_2="13000.00000" pt_clust_3="34.95380" pt_clust_4="113.73977"></scales>
<clustering>
<clus scale="   34.954">  2  5  1 -1</clus>
<clus scale="  113.740">  1  6  2 -1</clus>
<clus scale="  370.737">  1  3  2 -1</clus>
<clus scale="  370.737">  2  3  1 -1</clus>
</clustering>
</event>
<event>
 6   2  0.3464723E-02  0.4650826E+03  0.7816531E-02  0.1023317E+00
       21   -1    0    0  501  502  0.00000000000E+00  0.00000000000E+00  0.87504258116E+03  0.87504258116E+03  0.00000000000E+00 0. -1.
       21   -1    0    0  504  503  0.00000000000E+00  0.00000000000E+00 -0.10833523806E+04  0.10833523806E+04  0.00000000000E+00 0. -1.
  1000006    1    1    2  501    0  0.33243972653E+01 -0.27870222897E+03 -0.20463631320E+03  0.49199797229E+03  0.35000000000E+03 0.  0.
 -1000006    1    1    2    0  503  0.36791226347E+02  0.34065279698E+03 -0.28319126155E+03  0.56576957593E+03  0.35000000000E+03 0.  0.
       21    1    1    2  504  505 -0.10948872792E+03 -0.66871371700E+02 -0.29511797141E+03  0.32179835137E+03  0.00000000000E+00 0. -1.
       21    1    1    2  505  502  0.69373104305E+02  0.49208036909E+01  0.57463574668E+03  0.57882906222E+03  0.00000000000E+00 0. -1.
<scales pt_clust_1="13000.00000" pt_clust_2="13000.00000" pt_clust_3="125.54070" pt_clust_4="69.54741"></scales>
<clustering>
<clus scale="   69.547">  1  6  2 -1</clus>
<clus scale="  125.541">  2  5  1 -1</clus>
<clus scale="  465.083">  1  3  2 -1</clus>
<clus scale="  465.083">  1  3  2 -1</clus>
</clustering>
</event>
<event>
 6   2  0.3464723E-02  0.4421023E+03  0.7816531E-02  0.1030104E+00
       21   -1    0    0  501  502  0.00000000000E+00  0.00000000000E+00  0.36009110323E+03  0.36009110323E+03  0.00000000000E+00 0.  1.
       21   -1    0    0  504  503  0.00000000000E+00  0.00000000000E+00 -0.84907430716E+03  0.84907430716E+03  0.00000000000E+00 0.  1.
  1000006    1    1    2  501    0 -0.16547138828E+03 -0.12293983256E+03 -0.14076473386E+03  0.42989497911E+03  0.35000000000E+03 0.  0.
 -1000006    1    1    2    0  503  0.31672331336E+03  0.14136262574E+03 -0.14183645725E+03  0.51275201588E+03  0.35000000000E+03 0.  0.
       21    1    1    2  504  505 -0.54775211121E+02 -0.64107861322E+00 -0.13351478718E+03  0.14431539464E+03  0.00000000000E+00 0.  1.
       21    1    1    2  505  502 -0.96476713960E+02 -0.17781714566E+02 -0.72867225646E+02  0.12220302076E+03  0.00000000000E+00 0.  1.
<scales pt_clust_1="13000.00000" pt_clust_2="13000.00000" pt_clust_3="53.99909" pt_clust_4="168.63728"></scales>
<clustering>
<clus scale="   53.999">  5  6 -1 -1</clus>
<clus scale="  168.637">  2  5  1 -1</clus>
<clus scale="  442.102">  1  3  2 -1</clus>
<clus scale="  442.102">  1  3  2 -1</clus>
</clustering>
</event>
<event>
 5   1  0.3464723E-02  0.3713674E+03  0.7816531E-02  0.1054171E+00
       21   -1    0    0  501  502  0.00000000000E+00  0.00000000000E+00  0.22145504406E+04  0.22145504406E+04  0.00000000000E+00 0.  1.
       21   -1    0    0  504  503  0.00000000000E+00  0.00000000000E+00 -0.49556985393E+03  0.49556985393E+03  0.00000000000E+00 0.  1.
  1000006    1    1    2  501    0 -0.22866438796E+02 -0.22688105542E+01 -0.31763040859E+00  0.35075364918E+03  0.35000000000E+03 0.  0.
 -1000006    1    1    2    0  503  0.11159443880E+03 -0.17729956355E+03 -0.18262696725E+03  0.44692400156E+03  0.35000000000E+03 0.  0.
       21    1    1    2  504  502 -0.88728000006E+02  0.17956837411E+03  0.19019251843E+04  0.19124426438E+04  0.00000000000E+00 0.  1.
<scales pt_clust_1="13000.00000" pt_clust_2="13000.00000" pt_clust_3="200.29343"></scales>
<clustering>
<clus scale="  200.293">  1  5  2 -1</clus>
<clus scale="  371.367">  1  3  2 -1</clus>
<clus scale="  371.367">  1  3  2 -1</clus>
</clustering>
</event>
<event>
 6   2  0.3464723E-02  0.4884998E+03  0.7816531E-02  0.1016825E+00
       21   -1    0    0  501  502  0.00000000000E+00  0.00000000000E+00  0.11352008466E+04  0.11352008466E+04  0.00000000000E+00 0. -1.
       21   -1    0    0  505  503  0.00000000000E+00  0.00000000000E+00 -0.31546581368E+03  0.31546581368E+03  0.00000000000E+00 0.  1.
  1000006    1    1    2  501    0  0.55187222107E+02  0.34289240498E+03  0.49433203732E+03  0.69820125608E+03  0.35000000000E+03 0.  0.
 -1000006    1    1    2    0  503 -0.59108632363E+02 -0.35095518097E+03  0.16332932769E+03  0.52520456848E+03  0.35000000000E+03 0.  0.
       21    1    1    2  504  502  0.55742227097E+02 -0.47018236003E+02  0.12080062416E+03  0.14110528408E+03  0.00000000000E+00 0.  1.
       21    1    1    2  505  504 -0.51820816841E+02  0.55081011993E+02  0.41273043786E+02  0.86155551670E+02  0.00000000000E+00 0.  1.
<scales pt_clust_1="13000.00000" pt_clust_2="13000.00000" pt_clust_3="72.92400" pt_clust_4="71.03215"></scales>
<clustering>
<clus scale="   72.924">  1  5  2 -1</clus>
<clus scale="   71.032">  2  6  1 -1</clus>
<clus scale="  488.500">  2  4  1 -1</clus>
<clus scale="  488.500">  1  3  2 -1</clus>
</clustering>
</event>
<event>
 4   0  0.3464723E-02  0.4111896E+03  0.7816531E-02  0.1039973E+00
       21   -1    0    0  501  502  0.00000000000E+00  0.00000000000E+00  0.90685055484E+03  0.90685055484E+03  0.00000000000E+00 0. -1.
       21   -1    0    0  502  503  0.00000000000E+00  0.00000000000E+00 -0.18775857215E+03  0.18775857215E+03  0.00000000000E+00 0. -1.
  1000006    1    1    2  501    0  0.48363274273E+02 -0.21032807608E+03  0.40534017034E+03  0.57738856897E+03  0.35000000000E+03 0.  0.
 -1000006    1    1    2    0  503 -0.48363274273E+02  0.21032807608E+03  0.31375181235E+03  0.51722055802E+03  0.35000000000E+03 0.  0.
<scales pt_clust_1="13000.00000" pt_clust_2="13000.00000"></scales>
<clustering>
<clus scale="  411.190">  1  3  2 -1</clus>
<clus scale="  411.190">  1  3  2 -1</clus>
</clustering>
</event>
<event>
 4   0  0.3464723E-02  0.3705441E+03  0.7816531E-02  0.1054485E+00
       21   -1    0    0  503  502  0.00000000000E+00  0.00000000000E+00  0.35197143894E+03  0.35197143894E+03  0.00000000000E+00 0.  1.
       21   -1    0    0  501  503  0.00000000000E+00  0.00000000000E+00 -0.39045731167E+03  0.39045731167E+03  0.00000000000E+00 0.  1.
  1000006    1    1    2  501    0 -0.16292083505E+02 -0.12057145211E+03 -0.30523749422E+02  0.37179914783E+03  0.35000000000E+03 0.  0.
 -1000006    1    1    2    0  502  0.16292083505E+02  0.12057145211E+03 -0.79621233045E+01  0.37062960278E+03  0.35000000000E+03 0.  0.
<scales pt_clust_1="13000.00000" pt_clust_2="13000.00000"></scales>
<clustering>
<clus scale="  370.544">  2  3  1 -1</clus>
<clus scale="  370.544">  1  3  2 -1</clus>
</clustering>
</event>
<event>
 5   1  0.3464723E-02  0.4780492E+03  0.7816531E-02  0.1019673E+00
        2   -1    0    0  503    0  0.00000000000E+00  0.00000000000E+00  0.83864299527E+03  0.83864299527E+03  0.00000000000E+00 0. -1.
       21   -1    0    0  501  503  0.00000000000E+00  0.00000000000E+00 -0.12904601813E+04  0.12904601813E+04  0.00000000000E+00 0.  1.
  1000006    1    1    2  501    0 -0.23592319493E+03  0.22000494609E+03 -0.10140965012E+04  0.11202471352E+04  0.35000000000E+03 0.  0.
 -1000006    1    1    2    0  502  0.30835354509E+03 -0.16752005104E+03  0.60659900031E+02  0.49932404282E+03  0.35000000000E+03 0.  0.
        2    1    1    2  502    0 -0.72430350159E+02 -0.52484895053E+02  0.50161941517E+03  0.50953199851E+03  0.00000000000E+00 0. -1.
<scales pt_clust_1="13000.00000" pt_clust_2="13000.00000" pt_clust_3="89.44730"></scales>
<clustering>
<clus scale="   89.447">  1  5  2 -1</clus>
<clus scale="  478.049">  2  3  1 -1</clus>
<clus scale="  478.049">  2  3  1 -1</clus>
</clustering>
</event>
<event>
 4   0  0.3464723E-02  0.4080833E+03  0.7816531E-02  0.1041016E+00
       21   -1    0    0  501  502  0.00000000000E+00  0.00000000000E+00  0.54594847987E+03  0.54594847987E+03  0.00000000000E+00 0. -1.
       21   -1    0    0  502  503  0.00000000000E+00  0.00000000000E+00 -0.32417487918E+03  0.32417487918E+03  0.00000000000E+00 0. -1.
  1000006    1    1    2  501    0  0.19909184534E+03  0.66290232226E+02  0.21660764029E+03  0.46200738912E+03  0.35000000000E+03 0.  0.
 -1000006    1    1    2    0  503 -0.19909184534E+03 -0.66290232226E+02  0.51659603941E+01  0.40811596993E+03  0.35000000000E+03 0.  0.
<scales pt_clust_1="13000.00000" pt_clust_2="13000.00000"></scales>
<clustering>
<clus scale="  408.083">  1  3  2 -1</clus>
<clus scale="  408.083">  1  3  2 -1</clus>
</clustering>
</event>
<event>
 5   1  0.3464723E-02  0.4259043E+03  0.7816531E-02  0.1035162E+00
       21   -1    0    0  501  502  0.00000000000E+00  0.00000000000E+00  0.74094341186E+03  0.74094341186E+03  0.00000000000E+00 0. -1.
       21   -1    0    0  502  503  0.00000000000E+00  0.00000000000E+00 -0.28690026432E+03  0.28690026432E+03  0.00000000000E+00 0. -1.
  1000006    1    1    2  501    0  0.17168709565E+03 -0.17723843365E+03  0.27829258555E+03  0.51072172887E+03  0.35000000000E+03 0.  0.
 -1000006    1    1    2    0  504 -0.19339786000E+03  0.14180365121E+03  0.19995055739E+03  0.46903223040E+03  0.35000000000E+03 0.  0.
       21    1    1    2  504  503  0.21710764355E+02  0.35434782437E+02 -0.24199995393E+02  0.48089716908E+02  0.00000000000E+00 0.  1.
<scales pt_clust_1="13000.00000" pt_clust_2="13000.00000" pt_clust_3="41.55696"></scales>
<clustering>
<clus scale="   41.557">  2  5  1 -1</clus>
<clus scale="  425.904">  1  3  2 -1</clus>
<clus scale="  425.904">  1  3  2 -1</clus>
</clustering>
</event>
<event>
 4   0  0.3464723E-02  0.3888887E+03  0.7816531E-02  0.1047697E+00
       21   -1    0    0  501  502  0.00000000000E+00  0.00000000000E+00  0.22686034681E+03  0.22686034681E+03  0.00000000000E+00 0. -1.
       21   -1    0    0  502  503  0.00000000000E+00  0.00000000000E+00 -0.68459004178E+03  0.68459004178E+03  0.00000000000E+00 0. -1.
  1000006    1    1    2  501    0  0.15679580772E+03  0.64416367023E+02 -0.15507286582E+03  0.41866691698E+03  0.35000000000E+03 0.  0.
 -1000006    1    1    2    0  503 -0.15679580772E+03 -0.64416367023E+02 -0.30265682915E+03  0.49278347161E+03  0.35000000000E+03 0.  0.
<scales pt_clust_1="13000.00000" pt_clust_2="13000.00000"></scales>
<clustering>
<clus scale="  388.889">  1  3  2 -1</clus>
<clus scale="  388.889">  1  3  2 -1</clus>
</clustering>
</event>
<event>
 4   0  0.3464723E-02  0.6952437E+03  0.7816531E-02  0.9725401E-01
       21   -1    0    0  503  502  0.00000000000E+00  0.00000000000E+00  0.12041047556E+04  0.12041047556E+04  0.00000000000E+00 0.  1.
       21   -1    0    0  501  503  0.00000000000E+00  0.00000000000E+00 -0.45589307504E+03  0.45589307504E+03  0.00000000000E+00 0. -1.
  1000006    1    1    2  501    0 -0.13698359290E+03 -0.58489258912E+03  0.87228092251E+02  0.70069435962E+03  0.35000000000E+03 0.  0.
 -1000006    1    1    2    0  502  0.13698359290E+03  0.58489258912E+03  0.66098358834E+03  0.95930347105E+03  0.35000000000E+03 0.  0.
<scales pt_clust_1="13000.00000" pt_clust_2="13000.00000"></scales>
<clustering>
<clus scale="  695.244">  2  3  1 -1</clus>
<clus scale="  695.244">  1  3  2 -1</clus>
</clustering>
</event>
<event>
 4   0  0.3464723E-02  0.4012454E+03  0.7816531E-02  0.1043349E+00
       21   -1    0    0  501  502  0.00000000000E+00  0.00000000000E+00  0.56390290843E+03  0.56390290843E+03  0.00000000000E+00 0. -1.
       21   -1    0    0  502  503  0.00000000000E+00  0.00000000000E+00 -0.28628807099E+03  0.28628807099E+03  0.00000000000E+00 0. -1.
  1000006    1    1    2  501    0  0.21285353721E+02 -0.19505068926E+03  0.16102119131E+03  0.43234900453E+03  0.35000000000E+03 0.  0.
 -1000006    1    1    2    0  503 -0.21285353721E+02  0.19505068926E+03  0.11659364614E+03  0.41784197489E+03  0.35000000000E+03 0.  0.
<scales pt_clust_1="13000.00000" pt_clust_2="13000.00000"></scales>
<clustering>
<clus scale="  401.245">  1  3  2 -1</clus>
<clus scale="  401.245">  1  3  2 -1</clus>
</clustering>
</event>
<event>
 6   2  0.3464723E-02  0.3991818E+03  0.7816531E-02  0.1044063E+00
       21   -1    0    0  501  502  0.00000000000E+00  0.00000000000E+00  0.37426796373E+03  0.37426796373E+03  0.00000000000E+00 0. -1.
       21   -1    0    0  504  503  0.00000000000E+00  0.00000000000E+00 -0.20002036383E+04  0.20002036383E+04  0.00000000000E+00 0. -1.
  1000006    1    1    2  501    0  0.11972637217E+03  0.70408436295E+02  0.12213539671E+02  0.37675047796E+03  0.35000000000E+03 0.  0.
 -1000006    1    1    2    0  505 -0.76900686501E+02 -0.36950359757E+03 -0.27665845315E+03  0.58436848298E+03  0.35000000000E+03 0.  0.
       21    1    1    2  504  502 -0.41359092969E+02  0.33716046959E+03 -0.11807333872E+04  0.12286248770E+04  0.00000000000E+00 0. -1.
       21    1    1    2  505  503 -0.14665926986E+01 -0.38065308318E+02 -0.18075737388E+03  0.18472776403E+03  0.00000000000E+00 0. -1.
<scales pt_clust_1="13000.00000" pt_clust_2="13000.00000" pt_clust_3="314.78863" pt_clust_4="38.09355"></scales>
<clustering>
<clus scale="   38.094">  2  6  1 -1</clus>
<clus scale="  314.789">  2  5  1 -1</clus>
<clus scale="  399.182">  2  4  1 -1</clus>
<clus scale="  399.182">  1  3  2 -1</clus>
</clustering>
</event>
<event>
 6   2  0.3464723E-02  0.4840793E+03  0.7816531E-02  0.1018020E+00
        2   -1    0    0  501    0  0.00000000000E+00  0.00000000000E+00  0.79068118831E+03  0.79068118831E+03  0.00000000000E+00 0. -1.
       21   -1    0    0  502  503  0.00000000000E+00  0.00000000000E+00 -0.88248913110E+03  0.88248913110E+03  0.00000000000E+00 0.  1.
  1000006    1    1    2  501    0 -0.33567416715E+03 -0.40095709180E+03  0.11179690677E+03  0.63909489461E+03  0.35000000000E+03 0.  0.
 -1000006    1    1    2    0  504  0.25591867015E+03  0.34622256242E+02  0.13456903781E+03  0.45530417557E+03  0.35000000000E+03 0.  0.
       21    1    1    2  504  503  0.17411483196E+03  0.18694830378E+03 -0.12428560025E+03  0.28409954844E+03  0.00000000000E+00 0. -1.
        2    1    1    2  502    0 -0.94359334964E+02  0.17938653178E+03 -0.21388828711E+03  0.29467170078E+03  0.00000000000E+00 0. -1.
<scales pt_clust_1="13000.00000" pt_clust_2="13000.00000" pt_clust_3="284.12456" pt_clust_4="202.68994"></scales>
<clustering>
<clus scale="  202.690">  2  6  1 -1</clus>
<clus scale="  284.125">  2  5  1 -1</clus>
<clus scale="  793.064">  3  4 -1 -1</clus>
<clus scale="  484.079">  2  3  1 -1</clus>
</clustering>
</event>
<event>
 5   1  0.3464723E-02  0.3993299E+03  0.7816531E-02  0.1044012E+00
       -1   -1    0    0    0  501  0.00000000000E+00  0.00000000000E+00  0.30450624308E+03  0.30450624308E+03  0.00000000000E+00 0. -1.
       21   -1    0    0  502  503  0.00000000000E+00  0.00000000000E+00 -0.15441551011E+04  0.15441551011E+04  0.00000000000E+00 0. -1.
  1000006    1    1    2  502    0  0.36818790138E+02  0.15942051874E+03  0.33478871369E+02  0.38780324899E+03  0.35000000000E+03 0.  0.
 -1000006    1    1    2    0  501 -0.45414461751E+02 -0.36220045962E+03 -0.99968838359E+03  0.11203251807E+04  0.35000000000E+03 0.  0.
       -1    1    1    2    0  503  0.85956716137E+01  0.20277994089E+03 -0.27343934580E+03  0.34053291446E+03  0.00000000000E+00 0. -1.
<scales pt_clust_1="13000.00000" pt_clust_2="13000.00000" pt_clust_3="202.96204"></scales>
<clustering>
<clus scale="  202.962">  2  5  1 -1</clus>
<clus scale="  965.503">  3  4 -1 -1</clus>
<clus scale="  399.330">  2  3  1 -1</clus>
</clustering>
</event>
<event>
 4   0  0.3464723E-02  0.4865622E+03  0.7816531E-02  0.1017347E+00
       21   -1    0    0  503  502  0.00000000000E+00  0.00000000000E+00  0.20198352027E+04  0.20198352027E+04  0.00000000000E+00 0. -1.
       21   -1    0    0  501  503  0.00000000000E+00  0.00000000000E+00 -0.12527290492E+03  0.12527290492E+03  0.00000000000E+00 0.  1.
  1000006    1    1    2  501    0 -0.31047052979E+03  0.13360704093E+03  0.67515875229E+03  0.83221519576E+03  0.35000000000E+03 0.  0.
 -1000006    1    1    2    0  502  0.31047052979E+03 -0.13360704093E+03  0.12194035455E+04  0.13128929118E+04  0.35000000000E+03 0.  0.
<scales pt_clust_1="13000.00000" pt_clust_2="13000.00000"></scales>
<clustering>
<clus scale="  486.562">  2  3  1 -1</clus>
<clus scale="  486.562">  1  3  2 -1</clus>
</clustering>
</event>
<event>
 5   1  0.3464723E-02  0.3780517E+03  0.7816531E-02  0.1051656E+00
       21   -1    0    0  501  502  0.00000000000E+00  0.00000000000E+00  0.35206209381E+03  0.35206209381E+03  0.00000000000E+00 0.  1.
       21   -1    0    0  502  503  0.00000000000E+00  0.00000000000E+00 -0.80907372975E+03  0.80907372975E+03  0.00000000000E+00 0.  1.
  1000006    1    1    2  501    0  0.30586175903E+02  0.10958936305E+03  0.75400010432E+02  0.37567340101E+03  0.35000000000E+03 0.  0.
 -1000006    1    1    2    0  504 -0.90669922457E+02 -0.19375267493E+03 -0.23987267753E+03  0.47518421197E+03  0.35000000000E+03 0.  0.
       21    1    1    2  504  503  0.60083746554E+02  0.84163311881E+02 -0.29253896884E+03  0.31027821058E+03  0.00000000000E+00 0.  1.
<scales pt_clust_1="13000.00000" pt_clust_2="13000.00000" pt_clust_3="103.40948"></scales>
<clustering>
<clus scale="  103.409">  2  5  1 -1</clus>
<clus scale="  378.052">  1  3  2 -1</clus>
<clus scale="  378.052">  1  3  2 -1</clus>
</clustering>
</event>
<event>
 6   2  0.3464723E-02  0.4246277E+03  0.7816531E-02  0.1035571E+00
       21   -1    0    0  503  502  0.00000000000E+00  0.00000000000E+00  0.91285553230E+03  0.91285553230E+03  0.00000000000E+00 0. -1.
       21   -1    0    0  504  503  0.00000000000E+00  0.00000000000E+00 -0.56656599276E+03  0.56656599276E+03  0.00000000000E+00 0. -1.
  1000006    1    1    2  501    0 -0.20933734394E+03  0.15569252434E+03  0.39596069080E+02  0.43832651573E+03  0.35000000000E+03 0.  0.
 -1000006    1    1    2    0  505  0.21401230964E+03 -0.77343528100E+02  0.15209022320E+03  0.44431376977E+03  0.35000000000E+03 0.  0.
       21    1    1    2  504  501 -0.38611649642E+02 -0.12504796961E+03 -0.19917480266E+03  0.23832426692E+03  0.00000000000E+00 0. -1.
       21    1    1    2  505  502  0.33936683945E+02  0.46698973372E+02  0.35377804992E+03  0.35845697265E+03  0.00000000000E+00 0. -1.
<scales pt_clust_1="13000.00000" pt_clust_2="13000.00000" pt_clust_3="128.95423" pt_clust_4="57.72775"></scales>
<clustering>
<clus scale="   57.728">  1  6  2 -1</clus>
<clus scale="  128.954">  2  5  1 -1</clus>
<clus scale="  424.628">  2  3  1 -1</clus>
<clus scale="  424.628">  1  3  2 -1</clus>
</clustering>
</event>
<event>
 5   1  0.3464723E-02  0.3637870E+03  0.7816531E-02  0.1057094E+00
       21   -1    0    0  504  502  0.00000000000E+00  0.00000000000E+00  0.19817383375E+03  0.19817383375E+03  0.00000000000E+00 0. -1.
       21   -1    0    0  501  503  0.00000000000E+00  0.00000000000E+00 -0.75380982300E+03  0.75380982300E+03  0.00000000000E+00 0. -1.
  1000006    1    1    2  501    0 -0.34667835546E+02  0.74337336697E+02 -0.26528312252E+03  0.44676955306E+03  0.35000000000E+03 0.  0.
 -1000006    1    1    2    0  502  0.75654326975E+02 -0.90314991170E+02 -0.25506624276E+03  0.44881974446E+03  0.35000000000E+03 0.  0.
       21    1    1    2  504  503 -0.40986491429E+02  0.15977654473E+02 -0.35286623971E+02  0.56394359234E+02  0.00000000000E+00 0. -1.
<scales pt_clust_1="13000.00000" pt_clust_2="13000.00000" pt_clust_3="43.99066"></scales>
<clustering>
<clus scale="   43.991">  2  5  1 -1</clus>
<clus scale="  363.787">  2  3  1 -1</clus>
<clus scale="  363.787">  1  3  2 -1</clus>
</clustering>
</event>
<event>
 6   2  0.3464723E-02  0.4689793E+03  0.7816531E-02  0.1022209E+00
       -1   -1    0    0    0  501  0.00000000000E+00  0.00000000000E+00  0.71329841652E+03  0.71329841652E+03  0.00000000000E+00 0.  1.
       21   -1    0    0  504  503  0.00000000000E+00  0.00000000000E+00 -0.49243991788E+03  0.49243991788E+03  0.00000000000E+00 0.  1.
  1000006    1    1    2  502    0  0.11847863019E+03 -0.26164581295E+03  0.12066989583E+03  0.46856903548E+03  0.35000000000E+03 0.  0.
 -1000006    1    1    2    0  503 -0.25572296266E+03  0.22578407434E+03 -0.77435495985E+02  0.49484233640E+03  0.35000000000E+03 0.  0.
       21    1    1    2  504  501  0.11869123239E+03 -0.62141928058E+01  0.12772663557E+03  0.17447154001E+03  0.00000000000E+00 0.  1.
       -1    1    1    2    0  502  0.18553100073E+02  0.42075931422E+02  0.49897463228E+02  0.67855422510E+02  0.00000000000E+00 0.  1.
<scales pt_clust_1="13000.00000" pt_clust_2="13000.00000" pt_clust_3="123.02476" pt_clust_4="45.98480"></scales>
<clustering>
<clus scale="   45.985">  1  6  2 -1</clus>
<clus scale="  123.025">  1  5  2 -1</clus>
<clus scale="  468.979">  1  3  2 -1</clus>
<clus scale="  468.979">  2  3  1 -1</clus>
</clustering>
</event>
<event>
 4   0  0.3464723E-02  0.3688239E+03  0.7816531E-02  0.1055144E+00
       21   -1    0    0  501  502  0.00000000000E+00  0.00000000000E+00  0.49919099953E+03  0.49919099953E+03  0.00000000000E+00 0.  1.
       21   -1    0    0  502  503  0.00000000000E+00  0.00000000000E+00 -0.27355753526E+03  0.27355753526E+03  0.00000000000E+00 0.  1.
  1000006    1    1    2  501    0  0.57521222645E+02 -0.10110590032E+03  0.13680473625E+03  0.39337848187E+03  0.35000000000E+03 0.  0.
 -1000006    1    1    2    0  503 -0.57521222645E+02  0.10110590032E+03  0.88828728019E+02  0.37937005292E+03  0.35000000000E+03 0.  0.
<scales pt_clust_1="13000.00000" pt_clust_2="13000.00000"></scales>
<clustering>
<clus scale="  368.824">  1  3  2 -1</clus>
<clus scale="  368.824">  1  3  2 -1</clus>
</clustering>
</event>
<event>
 4   0  0.3464723E-02  0.5879961E+03  0.7816531E-02  0.9930628E-01
       21   -1    0    0  503  502  0.00000000000E+00  0.00000000000E+00  0.19400533430E+04  0.19400533430E+04  0.00000000000E+00 0. -1.
       21   -1    0    0  501  503  0.00000000000E+00  0.00000000000E+00 -0.23644131008E+03  0.23644131008E+03  0.00000000000E+00 0. -1.
  1000006    1    1    2  501    0  0.17959649012E+03  0.43701778008E+03  0.31174933704E+03  0.66552767675E+03  0.35000000000E+03 0.  0.
 -1000006    1    1    2    0  502 -0.17959649012E+03 -0.43701778008E+03  0.13918626958E+04  0.15109669763E+04  0.35000000000E+03 0.  0.
<scales pt_clust_1="13000.00000" pt_clust_2="13000.00000"></scales>
<clustering>
<clus scale="  587.996">  2  3  1 -1</clus>
<clus scale="  587.996">  1  3  2 -1</clus>
</clustering>
</event>
<event>
 6   2  0.3464723E-02  0.3725499E+03  0.7816531E-02  0.1053722E+00
       21   -1    0    0  505  502  0.00000000000E+00  0.00000000000E+00  0.15567993990E+03  0.15567993990E+03  0.00000000000E+00 0.  1.
       21   -1    0    0  504  503  0.00000000000E+00  0.00000000000E+00 -0.13155426187E+04  0.13155426187E+04  0.00000000000E+00 0.  1.
  1000006    1    1    2  501    0  0.10906991317E+03  0.37636375822E+02 -0.45739784573E+03  0.58738874012E+03  0.35000000000E+03 0.  0.
 -1000006    1    1    2    0  503 -0.99930576054E+02 -0.10580221217E+03 -0.56194163426E+03  0.67783377642E+03  0.35000000000E+03 0.  0.
       21    1    1    2  504  502  0.17290640740E+02 -0.37062424398E+02 -0.27223267655E+02  0.49129378800E+02  0.00000000000E+00 0.  1.
       21    1    1    2  505  501 -0.26429977852E+02  0.10522826075E+03 -0.11329993113E+03  0.15687066324E+03  0.00000000000E+00 0. -1.
<scales pt_clust_1="13000.00000" pt_clust_2="13000.00000" pt_clust_3="40.89731" pt_clust_4="102.45844"></scales>
<clustering>
<clus scale="   40.897">  1  5  2 -1</clus>
<clus scale="  102.458">  1  6  2 -1</clus>
<clus scale="  372.550">  2  4  1 -1</clus>
<clus scale="  372.550">  1  3  2 -1</clus>
</clustering>
</event>
<event>
 5   1  0.3464723E-02  0.4579862E+03  0.7816531E-02  0.1025367E+00
       21   -1    0    0  503  502  0.00000000000E+00  0.00000000000E+00  0.31023107521E+03  0.31023107521E+03  0.00000000000E+00 0.  1.
       21   -1    0    0  501  503  0.00000000000E+00  0.00000000000E+00 -0.21777342225E+04  0.21777342225E+04  0.00000000000E+00 0. -1.
  1000006    1    1    2  501    0 -0.26996977019E+03  0.13681954704E+03 -0.19304225185E+04  0.19851031120E+04  0.35000000000E+03 0.  0.
 -1000006    1    1    2    0  504  0.22216554810E+03 -0.76959963015E+02  0.43816070559E+02  0.42391062113E+03  0.35000000000E+03 0.  0.
       21    1    1    2  504  502  0.47804222090E+02 -0.59859584027E+02  0.19103300677E+02  0.78951564558E+02  0.00000000000E+00 0.  1.
<scales pt_clust_1="13000.00000" pt_clust_2="13000.00000" pt_clust_3="76.60557"></scales>
<clustering>
<clus scale="   76.606">  1  5  2 -1</clus>
<clus scale="  457.986">  2  3  1 -1</clus>
<clus scale="  457.986">  1  3  2 -1</clus>
</clustering>
</event>
<event>
 4   0  0.3464723E-02  0.3714222E+03  0.7816531E-02  0.1054150E+00
       21   -1    0    0  503  502  0.00000000000E+00  0.00000000000E+00  0.16263429299E+03  0.16263429299E+03  0.00000000000E+00 0.  1.
       21   -1    0    0  501  503  0.00000000000E+00  0.00000000000E+00 -0.84875088173E+03  0.84875088173E+03  0.00000000000E+00 0.  1.
  1000006    1    1    2  501    0 -0.73905405066E+02 -0.99962190444E+02 -0.35534981126E+03  0.51403106597E+03  0.35000000000E+03 0.  0.
 -1000006    1    1    2    0  502  0.73905405066E+02  0.99962190444E+02 -0.33076677747E+03  0.49735410875E+03  0.35000000000E+03 0.  0.
<scales pt_clust_1="13000.00000" pt_clust_2="13000.00000"></scales>
<clustering>
<clus scale="  371.422">  2  3  1 -1</clus>
<clus scale="  371.422">  1  3  2 -1</clus>
</clustering>
</event>
<event>
 5   1  0.3464723E-02  0.3523042E+03  0.7816531E-02  0.1061673E+00
        2   -1    0    0  503    0  0.00000000000E+00  0.00000000000E+00  0.22032552393E+04  0.22032552393E+04  0.00000000000E+00 0.  1.
       21   -1    0    0  501  503  0.00000000000E+00  0.00000000000E+00 -0.16819448529E+03  0.16819448529E+03  0.00000000000E+00 0.  1.
  1000006    1    1    2  501    0 -0.10631332126E+02 -0.44435639621E+02  0.13454632069E+03  0.37774364813E+03  0.35000000000E+03 0.  0.
 -1000006    1    1    2    0  502  0.42725597701E+02  0.10907793891E+02  0.62762341335E+03  0.71996916993E+03  0.35000000000E+03 0.  0.
        2    1    1    2  502    0 -0.32094265575E+02  0.33527845730E+02  0.12728910199E+04  0.12737369065E+04  0.00000000000E+00 0.  1.
<scales pt_clust_1="13000.00000" pt_clust_2="13000.00000" pt_clust_3="46.41291"></scales>
<clustering>
<clus scale="   46.413">  1  5  2 -1</clus>
<clus scale="  352.304">  2  3  1 -1</clus>
<clus scale="  352.304">  2  3  1 -1</clus>
</clustering>
</event>
<event>
 6   2  0.3464723E-02  0.3755485E+03  0.7816531E-02  0.1052591E+00
       21   -1    0    0  505  502  0.00000000000E+00  0.00000000000E+00  0.15900204081E+04  0.15900204081E+04  0.00000000000E+00 0.  1.
       21   -1    0    0  502  503  0.00000000000E+00  0.00000000000E+00 -0.26925076185E+03  0.26925076185E+03  0.00000000000E+00 0.  1.
  1000006    1    1    2  501    0  0.11132833173E+03  0.11721470430E+03  0.42191160774E+03  0.57152663026E+03  0.35000000000E+03 0.  0.
 -1000006    1    1    2    0  504 -0.46993769614E+02 -0.11396267494E+03  0.38174116735E+02  0.37303239652E+03  0.35000000000E+03 0.  0.
       21    1    1    2  504  503 -0.53857655380E+02  0.28623275551E+02  0.81675480279E+01  0.61535743980E+02  0.00000000000E+00 0. -1.
       21    1    1    2  505  501 -0.10476906732E+02 -0.31875304907E+02  0.85251637372E+03  0.85317639917E+03  0.00000000000E+00 0.  1.
<scales pt_clust_1="13000.00000" pt_clust_2="13000.00000" pt_clust_3="60.74158" pt_clust_4="33.55295"></scales>
<clustering>
<clus scale="   33.553">  1  6  2 -1</clus>
<clus scale="   60.742">  2  5  1 -1</clus>
<clus scale="  375.548">  1  3  2 -1</clus>
<clus scale="  375.548">  1  3  2 -1</clus>
</clustering>
</event>
<event>
 5   1  0.3464723E-02  0.3698618E+03  0.7816531E-02  0.1054746E+00
       21   -1    0    0  503  502  0.00000000000E+00  0.00000000000E+00  0.98764252613E+03  0.98764252613E+03  0.00000000000E+00 0. -1.
       21   -1    0    0  501  503  0.00000000000E+00  0.00000000000E+00 -0.27490239404E+03  0.27490239404E+03  0.00000000000E+00 0.  1.
  1000006    1    1    2  501    0 -0.10121216023E+03 -0.91116438090E+02  0.61168705727E+02  0.38050981226E+03  0.35000000000E+03 0.  0.
 -1000006    1    1    2    0  504 -0.87920148968E+02  0.15728049686E+03  0.44835250904E+03  0.59664652823E+03  0.35000000000E+03 0.  0.
       21    1    1    2  504  502  0.18913230919E+03 -0.66164058770E+02  0.20321891732E+03  0.28538857968E+03  0.00000000000E+00 0.  1.
<scales pt_clust_1="13000.00000" pt_clust_2="13000.00000" pt_clust_3="200.37144"></scales>
<clustering>
<clus scale="  200.371">  1  5  2 -1</clus>
<clus scale="  369.862">  2  3  1 -1</clus>
<clus scale="  369.862">  1  3  2 -1</clus>
</clustering>
</event>
<event>
 6   2  0.3464723E-02  0.4284776E+03  0.7816531E-02  0.1034342E+00
       21   -1    0    0  505  502  0.00000000000E+00  0.00000000000E+00  0.21898780716E+03  0.21898780716E+03  0.00000000000E+00 0.  1.
       21   -1    0    0  502  503  0.00000000000E+00  0.00000000000E+00 -0.21370826294E+04  0.21370826294E+04  0.00000000000E+00 0. -1.
  1000006    1    1    2  501    0  0.13651304206E+03  0.20562945484E+03 -0.28195412738E+03  0.51275473016E+03  0.35000000000E+03 0.  0.
 -1000006    1    1    2    0  504 -0.24187504128E+03 -0.14835829890E+03 -0.12430682651E+04  0.13222074089E+04  0.35000000000E+03 0.  0.
       21    1    1    2  504  503  0.14235384923E+03 -0.75866478578E+02 -0.43392872940E+03  0.46294112279E+03  0.00000000000E+00 0. -1.
       21    1    1    2  505  501 -0.36991850014E+02  0.18595322643E+02  0.40856299663E+02  0.58167174711E+02  0.00000000000E+00 0. -1.
<scales pt_clust_1="13000.00000" pt_clust_2="13000.00000" pt_clust_3="157.76541" pt_clust_4="41.40269"></scales>
<clustering>
<clus scale="   41.403">  1  6  2 -1</clus>
<clus scale="  157.765">  2  5  1 -1</clus>
<clus scale="  428.478">  2  4  1 -1</clus>
<clus scale="  428.478">  1  3  2 -1</clus>
</clustering>
</event>
<event>
 5   1  0.3464723E-02  0.4806974E+03  0.7816531E-02  0.1018944E+00
        1   -1    0    0  503    0  0.00000000000E+00  0.00000000000E+00  0.70159024442E+03  0.70159024442E+03  0.00000000000E+00 0. -1.
       21   -1    0    0  501  503  0.00000000000E+00  0.00000000000E+00 -0.92865521769E+03  0.92865521769E+03  0.00000000000E+00 0. -1.
  1000006    1    1    2  501    0  0.32716537815E+03 -0.69018637370E+02 -0.65212619985E+03  0.81213874276E+03  0.35000000000E+03 0.  0.
 -1000006    1    1    2    0  502 -0.28804538677E+03  0.13625437204E+03  0.99875316979E+02  0.48374629474E+03  0.35000000000E+03 0.  0.
        1    1    1    2  502    0 -0.39119991380E+02 -0.67235734671E+02  0.32518590960E+03  0.33436042461E+03  0.00000000000E+00 0. -1.
<scales pt_clust_1="13000.00000" pt_clust_2="13000.00000" pt_clust_3="77.78829"></scales>
<clustering>
<clus scale="   77.788">  1  5  2 -1</clus>
<clus scale="  480.697">  1  4  2 -1</clus>
<clus scale="  480.697">  2  3  1 -1</clus>
</clustering>
</event>
<event>
 5   1  0.3464723E-02  0.3520354E+03  0.7816531E-02  0.1061783E+00
       21   -1    0    0  504  502  0.00000000000E+00  0.00000000000E+00  0.12263353796E+04  0.12263353796E+04  0.00000000000E+00 0. -1.
       21   -1    0    0  501  503  0.00000000000E+00  0.00000000000E+00 -0.25442609142E+03  0.25442609142E+03  0.00000000000E+00 0. -1.
  1000006    1    1    2  501    0 -0.17946516534E+03  0.77524184197E+02  0.11028539786E+03  0.41578914570E+03  0.35000000000E+03 0.  0.
 -1000006    1    1    2    0  502 -0.26709306222E+02 -0.23133754124E+02  0.74033662319E+03  0.81966265821E+03  0.35000000000E+03 0.  0.
       21    1    1    2  504  503  0.20617447156E+03 -0.54390430073E+02  0.12128726711E+03  0.24530966709E+03  0.00000000000E+00 0. -1.
<scales pt_clust_1="13000.00000" pt_clust_2="13000.00000" pt_clust_3="213.22812"></scales>
<clustering>
<clus scale="  213.228">  2  5  1 -1</clus>
<clus scale="  352.035">  2  3  1 -1</clus>
<clus scale="  352.035">  1  3  2 -1</clus>
</clustering>
</event>
<event>
 6   2  0.3464723E-02  0.4684502E+03  0.7816531E-02  0.1022359E+00
        2   -1    0    0  503    0  0.00000000000E+00  0.00000000000E+00  0.11958764912E+04  0.11958764912E+04  0.00000000000E+00 0.  1.
       21   -1    0    0  504  503  0.00000000000E+00  0.00000000000E+00 -0.13860057265E+04  0.13860057265E+04  0.00000000000E+00 0. -1.
  1000006    1    1    2  501    0  0.26489561102E+01 -0.36530512977E+03 -0.40506461516E+03  0.64809891009E+03  0.35000000000E+03 0.  0.
 -1000006    1    1    2    0  502  0.50824579194E+02  0.25280037494E+03 -0.47583514348E+03  0.64452327436E+03  0.35000000000E+03 0.  0.
       21    1    1    2  504  501  0.27055178221E+02  0.16661511522E+03 -0.27280966472E+03  0.32080787467E+03  0.00000000000E+00 0. -1.
        2    1    1    2  502    0 -0.80528713526E+02 -0.54110360398E+02  0.96358018800E+03  0.96845215861E+03  0.00000000000E+00 0.  1.
<scales pt_clust_1="13000.00000" pt_clust_2="13000.00000" pt_clust_3="162.04212" pt_clust_4="97.01961"></scales>
<clustering>
<clus scale="   97.020">  1  6  2 -1</clus>
<clus scale="  162.042">  2  5  1 -1</clus>
<clus scale="  468.450">  1  4  2 -1</clus>
<clus scale="  468.450">  2  3  1 -1</clus>
</clustering>
</event>
<event>
 4   0  0.3464723E-02  0.3909693E+03  0.7816531E-02  0.1046952E+00
       21   -1    0    0  503  502  0.00000000000E+00  0.00000000000E+00  0.10965460444E+04  0.10965460444E+04  0.00000000000E+00 0.  1.
       21   -1    0    0  501  503  0.00000000000E+00  0.00000000000E+00 -0.14000243376E+03  0.14000243376E+03  0.00000000000E+00 0.  1.
  1000006    1    1    2  501    0  0.16375195060E+03  0.59517115556E+02  0.43766765448E+03  0.58686451942E+03  0.35000000000E+03 0.  0.
 -1000006    1    1    2    0  502 -0.16375195060E+03 -0.59517115556E+02  0.51887595618E+03  0.64968395876E+03  0.35000000000E+03 0.  0.
<scales pt_clust_1="13000.00000" pt_clust_2="13000.00000"></scales>
<clustering>
<clus scale="  390.969">  2  3  1 -1</clus>
<clus scale="  390.969">  1  3  2 -1</clus>
</clustering>
</event>
<event>
 4   0  0.3464723E-02  0.3755435E+03  0.7816531E-02  0.1052593E+00
       21   -1    0    0  501  502  0.00000000000E+00  0.00000000000E+00  0.12103877226E+04  0.12103877226E+04  0.00000000000E+00 0. -1.
       21   -1    0    0  502  503  0.00000000000E+00  0.00000000000E+00 -0.11780311564E+03  0.11780311564E+03  0.00000000000E+00 0. -1.
  1000006    1    1    2  501    0  0.13612055527E+03  0.20229830889E+01  0.61563356610E+03  0.72113631564E+03  0.35000000000E+03 0.  0.
 -1000006    1    1    2    0  503 -0.13612055527E+03 -0.20229830889E+01  0.47695104087E+03  0.60705452261E+03  0.35000000000E+03 0.  0.
<scales pt_clust_1="13000.00000" pt_clust_2="13000.00000"></scales>
<clustering>
<clus scale="  375.543">  1  3  2 -1</clus>
<clus scale="  375.543">  1  3  2 -1</clus>
</clustering>
</event>
<event>
 6   2  0.3464723E-02  0.3749037E+03  0.7816531E-02  0.1052834E+00
       21   -1    0    0  503  502  0.00000000000E+00  0.00000000000E+00  0.57779821397E+03  0.57779821397E+03  0.00000000000E+00 0. -1.
       21   -1    0    0  501  503  0.00000000000E+00  0.00000000000E+00 -0.10226204784E+04  0.10226204784E+04  0.00000000000E+00 0. -1.
  1000006    1    1    2  501    0  0.55421240642E+00  0.14425956899E+03 -0.52054752223E+03  0.64364652823E+03  0.35000000000E+03 0.  0.
 -1000006    1    1    2    0  504 -0.33363864253E+02 -0.11957212863E+03 -0.34940533091E+03  0.50989678039E+03  0.35000000000E+03 0.  0.
       21    1    1    2  504  505  0.73659029389E+02 -0.89820517043E+01  0.14042191985E+03  0.15882268553E+03  0.00000000000E+00 0. -1.
       21    1    1    2  505  502 -0.40849377542E+02 -0.15705388665E+02  0.28470866881E+03  0.28805269826E+03  0.00000000000E+00 0.  1.
<scales pt_clust_1="13000.00000" pt_clust_2="13000.00000" pt_clust_3="55.37458" pt_clust_4="43.76449"></scales>
<clustering>
<clus scale="   43.764">  1  6  2 -1</clus>
<clus scale="   55.375">  1  5  2 -1</clus>
<clus scale="  374.904">  1  4  2 -1</clus>
<clus scale="  374.904">  1  3  2 -1</clus>
</clustering>
</event>
<event>
 5   1  0.3464723E-02  0.3816158E+03  0.7816531E-02  0.1050338E+00
       21   -1    0    0  504  502  0.00000000000E+00  0.00000000000E+00  0.32595232594E+03  0.32595232594E+03  0.00000000000E+00 0.  1.
       21   -1    0    0  501  503  0.00000000000E+00  0.00000000000E+00 -0.55595388658E+03  0.55595388658E+03  0.00000000000E+00 0.  1.
  1000006    1    1    2  501    0 -0.97608141124E+02 -0.13556015564E+03 -0.67820565202E+02  0.39370488196E+03  0.35000000000E+03 0.  0.
 -1000006    1    1    2    0  502  0.11357939164E+03  0.83475081134E+02 -0.73933847603E+02  0.38449262827E+03  0.35000000000E+03 0.  0.
       21    1    1    2  504  503 -0.15971250514E+02  0.52085074506E+02 -0.88247147834E+02  0.10370870229E+03  0.00000000000E+00 0. -1.
<scales pt_clust_1="13000.00000" pt_clust_2="13000.00000" pt_clust_3="54.47876"></scales>
<clustering>
<clus scale="   54.479">  2  5  1 -1</clus>
<clus scale="  381.616">  1  4  2 -1</clus>
<clus scale="  381.616">  1  3  2 -1</clus>
</clustering>
</event>
<event>
 4   0  0.3464723E-02  0.3646307E+03  0.7816531E-02  0.1056765E+00
       21   -1    0    0  501  502  0.00000000000E+00  0.00000000000E+00  0.15622609181E+04  0.15622609181E+04  0.00000000000E+00 0.  1.
       21   -1    0    0  502  503  0.00000000000E+00  0.00000000000E+00 -0.95596203858E+02  0.95596203858E+02  0.00000000000E+00 0.  1.
  1000006    1    1    2  501    0 -0.44814405863E+02 -0.91908750803E+02  0.10079435703E+04  0.10718702302E+04  0.35000000000E+03 0.  0.
 -1000006    1    1    2    0  503  0.44814405863E+02  0.91908750803E+02  0.45872114402E+03  0.58598689185E+03  0.35000000000E+03 0.  0.
<scales pt_clust_1="13000.00000" pt_clust_2="13000.00000"></scales>
<clustering>
<clus scale="  364.631">  1  3  2 -1</clus>
<clus scale="  364.631">  1  3  2 -1</clus>
</clustering>
</event>
<event>
 6   2  0.3464723E-02  0.4071479E+03  0.7816531E-02  0.1041332E+00
        2   -1    0    0  504    0  0.00000000000E+00  0.00000000000E+00  0.83616540455E+03  0.83616540455E+03  0.00000000000E+00 0. -1.
       21   -1    0    0  501  503  0.00000000000E+00  0.00000000000E+00 -0.79177152063E+03  0.79177152063E+03  0.00000000000E+00 0. -1.
  1000006    1    1    2  501    0  0.22363454072E+03 -0.76623012561E+02 -0.27296948239E+03  0.50288749455E+03  0.35000000000E+03 0.  0.
 -1000006    1    1    2    0  502 -0.85791626391E+02  0.13917523341E+03  0.99113320297E+02  0.39881499347E+03  0.35000000000E+03 0.  0.
       21    1    1    2  504  503 -0.56028882609E+02 -0.10776619349E+03 -0.23441767672E+03  0.26401597548E+03  0.00000000000E+00 0.  1.
        2    1    1    2  502    0 -0.81814031717E+02  0.45213972638E+02  0.45266772274E+03  0.46221846168E+03  0.00000000000E+00 0. -1.
<scales pt_clust_1="13000.00000" pt_clust_2="13000.00000" pt_clust_3="121.42313" pt_clust_4="93.47641"></scales>
<clustering>
<clus scale="   93.476">  1  6  2 -1</clus>
<clus scale="  121.423">  2  5  1 -1</clus>
<clus scale="  407.148">  2  3  1 -1</clus>
<clus scale="  407.148">  2  3  1 -1</clus>
</clustering>
</event>
<event>
 4   0  0.3464723E-02  0.6769722E+03  0.7816531E-02  0.9757444E-01
       -2   -1    0    0    0  501  0.00000000000E+00  0.00000000000E+00  0.99679648094E+03  0.99679648094E+03  0.00000000000E+00 0. -1.
        2   -1    0    0  502    0  0.00000000000E+00  0.00000000000E+00 -0.65067056079E+03  0.65067056079E+03  0.00000000000E+00 0.  1.
  1000006    1    1    2  502    0 -0.57163669243E+03 -0.94989042267E+02 -0.27312336702E+03  0.72999164372E+03  0.35000000000E+03 0.  0.
 -1000006    1    1    2    0  501  0.57163669243E+03  0.94989042267E+02  0.61924928717E+03  0.91747539800E+03  0.35000000000E+03 0.  0.
<scales pt_clust_1="13000.00000" pt_clust_2="13000.00000"></scales>
<clustering>
<clus scale=" 1492.262">  3  4 -1 -1</clus>
<clus scale="  676.972">  2  3  1 -1</clus>
</clustering>
</event>
<event>
 5   1  0.3464723E-02  0.3874557E+03  0.7816531E-02  0.1048212E+00
       21   -1    0    0  501  502  0.00000000000E+00  0.00000000000E+00  0.21812107033E+03  0.21812107033E+03  0.00000000000E+00 0. -1.
       21   -1    0    0  504  503  0.00000000000E+00  0.00000000000E+00 -0.77918600958E+03  0.77918600958E+03  0.00000000000E+00 0. -1.
  1000006    1    1    2  501    0  0.14216665283E+03 -0.10986777506E+03 -0.18726148966E+03  0.43571682396E+03  0.35000000000E+03 0.  0.
 -1000006    1    1    2    0  503 -0.10923812415E+03  0.10138391931E+03 -0.31604935794E+03  0.49456937179E+03  0.35000000000E+03 0.  0.
       21    1    1    2  504  502 -0.32928528682E+02  0.84838557497E+01 -0.57754091658E+02  0.67020884154E+02  0.00000000000E+00 0. -1.
<scales pt_clust_1="13000.00000" pt_clust_2="13000.00000" pt_clust_3="34.00388"></scales>
<clustering>
<clus scale="   34.004">  2  5  1 -1</clus>
<clus scale="  387.456">  2  4  1 -1</clus>
<clus scale="  387.456">  1  3  2 -1</clus>
</clustering>
</event>
<event>
 4   0  0.3464723E-02  0.4401510E+03  0.7816531E-02  0.1030700E+00
       21   -1    0    0  501  502  0.00000000000E+00  0.00000000000E+00  0.96989217065E+03  0.96989217065E+03  0.00000000000E+00 0.  1.
       21   -1    0    0  502  503  0.00000000000E+00  0.00000000000E+00 -0.27657653071E+03  0.27657653071E+03  0.00000000000E+00 0.  1.
  1000006    1    1    2  501    0  0.25935368481E+03  0.62996760987E+02  0.67513724846E+03  0.80594244830E+03  0.35000000000E+03 0.  0.
 -1000006    1    1    2    0  503 -0.25935368481E+03 -0.62996760987E+02  0.18178391477E+02  0.44052625306E+03  0.35000000000E+03 0.  0.
<scales pt_clust_1="13000.00000" pt_clust_2="13000.00000"></scales>
<clustering>
<clus scale="  440.151">  1  3  2 -1</clus>
<clus scale="  440.151">  1  3  2 -1</clus>
</clustering>
</event>
<event>
 6   2  0.3464723E-02  0.4418014E+03  0.7816531E-02  0.1030196E+00
       21   -1    0    0  503  502  0.00000000000E+00  0.00000000000E+00  0.58532896958E+03  0.58532896958E+03  0.00000000000E+00 0.  1.
       21   -1    0    0  505  503  0.00000000000E+00  0.00000000000E+00 -0.44400277387E+03  0.44400277387E+03  0.00000000000E+00 0. -1.
  1000006    1    1    2  501    0 -0.17574536122E+03  0.23582689571E+03  0.13117796357E+02  0.45735416617E+03  0.35000000000E+03 0.  0.
 -1000006    1    1    2    0  504  0.13959847148E+03 -0.19970390869E+03  0.14519190535E+03  0.45049980440E+03  0.35000000000E+03 0.  0.
       21    1    1    2  504  502  0.48315521491E+01 -0.37382133203E+02  0.40921246682E+02  0.55635566044E+02  0.00000000000E+00 0.  1.
       21    1    1    2  505  501  0.31315337585E+02  0.12591461831E+01 -0.57904752689E+02  0.65842206836E+02  0.00000000000E+00 0. -1.
<scales pt_clust_1="13000.00000" pt_clust_2="13000.00000" pt_clust_3="37.75110" pt_clust_4="31.34064"></scales>
<clustering>
<clus scale="   31.341">  2  6  1 -1</clus>
<clus scale="   37.751">  1  5  2 -1</clus>
<clus scale="  441.801">  2  3  1 -1</clus>
<clus scale="  441.801">  1  3  2 -1</clus>
</clustering>
</event>
<event>
 6   2  0.3464723E-02  0.3671876E+03  0.7816531E-02  0.1055774E+00
       21   -1    0    0  501  502  0.00000000000E+00  0.00000000000E+00  0.38230737115E+03  0.38230737115E+03  0.00000000000E+00 0.  1.
       21   -1    0    0  505  503  0.00000000000E+00  0.00000000000E+00 -0.12587146649E+04  0.12587146649E+04  0.00000000000E+00 0.  1.
  1000006    1    1    2  501    0  0.65919039826E+02 -0.15346456544E+03  0.50476440763E+02  0.39108127509E+03  0.35000000000E+03 0.  0.
 -1000006    1    1    2    0  503  0.29841085961E+01  0.49586614044E+02 -0.42954242131E+02  0.35610785461E+03  0.35000000000E+03 0.  0.
       21    1    1    2  504  502 -0.33397937368E+02  0.24531800774E+02 -0.18912503477E+03  0.19361175131E+03  0.00000000000E+00 0.  1.
       21    1    1    2  505  504 -0.35505211055E+02  0.79346150623E+02 -0.69480445762E+03  0.70022115504E+03  0.00000000000E+00 0.  1.
<scales pt_clust_1="13000.00000" pt_clust_2="13000.00000" pt_clust_3="31.39539" pt_clust_4="132.68729"></scales>
<clustering>
<clus scale="   31.395">  5  6 -1 -1</clus>
<clus scale="  132.687">  2  5  1 -1</clus>
<clus scale="  367.188">  1  3  2 -1</clus>
<clus scale="  367.188">  1  3  2 -1</clus>
</clustering>
</event>
<event>
 5   1  0.3464723E-02  0.4035879E+03  0.7816531E-02  0.1042544E+00
        1   -1    0    0  501    0  0.00000000000E+00  0.00000000000E+00  0.10523778268E+04  0.10523778268E+04  0.00000000000E+00 0.  1.
       21   -1    0    0  502  503  0.00000000000E+00  0.00000000000E+00 -0.29495810663E+03  0.29495810663E+03  0.00000000000E+00 0.  1.
  1000006    1    1    2  501    0  0.14077239236E+03  0.25876580246E+03  0.39057941467E+03  0.60152214102E+03  0.35000000000E+03 0.  0.
 -1000006    1    1    2    0  503 -0.46848176806E+02 -0.15548526609E+03  0.36951578099E+02  0.38760268158E+03  0.35000000000E+03 0.  0.
        1    1    1    2  502    0 -0.93924215558E+02 -0.10328053637E+03  0.32988872744E+03  0.35821111087E+03  0.00000000000E+00 0.  1.
<scales pt_clust_1="13000.00000" pt_clust_2="13000.00000" pt_clust_3="139.60167"></scales>
<clustering>
<clus scale="  139.602">  1  5  2 -1</clus>
<clus scale="  403.588">  1  3  2 -1</clus>
<clus scale="  403.588">  2  3  1 -1</clus>
</clustering>
</event>
<event>
 4   0  0.3464723E-02  0.5579466E+03  0.7816531E-02  0.9996712E-01
       -2   -1    0    0    0  501  0.00000000000E+00  0.00000000000E+00  0.18772739694E+03  0.18772739694E+03  0.00000000000E+00 0.  1.
        2   -1    0    0  502    0  0.00000000000E+00  0.00000000000E+00 -0.16662764375E+04  0.16662764375E+04  0.00000000000E+00 0. -1.
  1000006    1    1    2  502    0  0.33404744790E+02  0.43323039516E+03 -0.80349521271E+03  0.97821726069E+03  0.35000000000E+03 0.  0.
 -1000006    1    1    2    0  501 -0.33404744790E+02 -0.43323039516E+03 -0.67505382790E+03  0.87578657379E+03  0.35000000000E+03 0.  0.
<scales pt_clust_1="13000.00000" pt_clust_2="13000.00000"></scales>
<clustering>
<clus scale="  940.065">  3  4 -1 -1</clus>
<clus scale="  557.947">  2  3  1 -1</clus>
</clustering>
</event>
<event>
 5   1  0.3464723E-02  0.3746027E+03  0.7816531E-02  0.1052947E+00
       21   -1    0    0  501  502  0.00000000000E+00  0.00000000000E+00  0.53861388413E+03  0.53861388413E+03  0.00000000000E+00 0.  1.
       21   -1    0    0  504  503  0.00000000000E+00  0.00000000000E+00 -0.39053231987E+03  0.39053231987E+03  0.00000000000E+00 0.  1.
  1000006    1    1    2  501    0  0.11740363696E+03 -0.25306893468E+02  0.28102016198E+03  0.46464651539E+03  0.35000000000E+03 0.  0.
 -1000006    1    1    2    0  503 -0.12693301567E+03  0.55321315709E+02 -0.17241290493E+03  0.41400319832E+03  0.35000000000E+03 0.  0.
       21    1    1    2  504  502  0.95293787066E+01 -0.30014422241E+02  0.39474307210E+02  0.50496490281E+02  0.00000000000E+00 0. -1.
<scales pt_clust_1="13000.00000" pt_clust_2="13000.00000" pt_clust_3="31.49087"></scales>
<clustering>
<clus scale="   31.491">  1  5  2 -1</clus>
<clus scale="  374.603">  2  4  1 -1</clus>
<clus scale="  374.603">  1  3  2 -1</clus>
</clustering>
</event>
<event>
 6   2  0.3464723E-02  0.3793797E+03  0.7816531E-02  0.1051163E+00
       21   -1    0    0  505  502  0.00000000000E+00  0.00000000000E+00  0.18662306840E+04  0.18662306840E+04  0.00000000000E+00 0. -1.
       21   -1    0    0  501  503  0.00000000000E+00  0.00000000000E+00 -0.23667941248E+03  0.23667941248E+03  0.00000000000E+00 0. -1.
  1000006    1    1    2  501    0  0.61938805098E+02 -0.10674962743E+03  0.45362960667E+03  0.58609872767E+03  0.35000000000E+03 0.  0.
 -1000006    1    1    2    0  502 -0.18137959847E+03 -0.85056182399E+02  0.11243001214E+04  0.11944387284E+04  0.35000000000E+03 0.  0.
       21    1    1    2  504  503  0.14480870779E+03  0.17571803195E+03 -0.35289821824E+02  0.23041649274E+03  0.00000000000E+00 0. -1.
       21    1    1    2  505  504 -0.25367914413E+02  0.16087777886E+02  0.86911365212E+02  0.91956147603E+02  0.00000000000E+00 0.  1.
<scales pt_clust_1="13000.00000" pt_clust_2="13000.00000" pt_clust_3="227.49975" pt_clust_4="30.03910"></scales>
<clustering>
<clus scale="   30.039">  1  6  2 -1</clus>
<clus scale="  227.500">  2  5  1 -1</clus>
<clus scale="  379.380">  1  4  2 -1</clus>
<clus scale="  379.380">  1  3  2 -1</clus>
</clustering>
</event>
<event>
 6   2  0.3464723E-02  0.4431753E+03  0.7816531E-02  0.1029777E+00
       21   -1    0    0  501  502  0.00000000000E+00  0.00000000000E+00  0.19054313063E+04  0.19054313063E+04  0.00000000000E+00 0. -1.
       21   -1    0    0  504  503  0.00000000000E+00  0.00000000000E+00 -0.15039459265E+04  0.15039459265E+04  0.00000000000E+00 0. -1.
  1000006    1    1    2  501    0  0.32714940709E+03  0.67519258161E+02 -0.37342452088E+03  0.61117219961E+03  0.35000000000E+03 0.  0.
 -1000006    1    1    2    0  503 -0.20011112512E+03 -0.15658250983E+03 -0.83224965275E+03  0.93792431960E+03  0.35000000000E+03 0.  0.
       21    1    1    2  504  505 -0.98826695602E+02  0.48706305905E+01 -0.10589398413E+03  0.14492748077E+03  0.00000000000E+00 0. -1.
       21    1    1    2  505  502 -0.28211586372E+02  0.84192621075E+02  0.17130535375E+04  0.17153532329E+04  0.00000000000E+00 0. -1.
<scales pt_clust_1="13000.00000" pt_clust_2="13000.00000" pt_clust_3="102.59321" pt_clust_4="88.79353"></scales>
<clustering>
<clus scale="   88.794">  1  6  2 -1</clus>
<clus scale="  102.593">  1  5  2 -1</clus>
<clus scale="  443.175">  2  4  1 -1</clus>
<clus scale="  443.175">  1  3  2 -1</clus>
</clustering>
</event>
<event>
 6   2  0.3464723E-02  0.4016211E+03  0.7816531E-02  0.1043220E+00
       -2   -1    0    0    0  501  0.00000000000E+00  0.00000000000E+00  0.71298366424E+03  0.71298366424E+03  0.00000000000E+00 0.  1.
        2   -1    0    0  502    0  0.00000000000E+00  0.00000000000E+00 -0.14556398571E+04  0.14556398571E+04  0.00000000000E+00 0. -1.
  1000006    1    1    2  502    0  0.79768120044E+02 -0.15875746673E+03 -0.96746624430E+03  0.10440583413E+04  0.35000000000E+03 0.  0.
 -1000006    1    1    2    0  501 -0.51120551497E+02  0.23473693260E+03 -0.33800120910E+03  0.54264127715E+03  0.35000000000E+03 0.  0.
        2    1    1    2  503    0  0.86648276784E+01  0.31182325387E+02  0.88611660462E+02  0.94336859313E+02  0.00000000000E+00 0. -1.
       -2    1    1    2    0  503 -0.37312396225E+02 -0.10716179126E+03  0.47419960003E+03  0.48758704360E+03  0.00000000000E+00 0.  1.
<scales pt_clust_1="13000.00000" pt_clust_2="13000.00000" pt_clust_3="32.36383" pt_clust_4="113.32305"></scales>
<clustering>
<clus scale="   32.364">  2  5  1 -1</clus>
<clus scale="  113.323">  1  6  2 -1</clus>
<clus scale="  401.621">  1  4  2 -1</clus>
<clus scale="  401.621">  2  3  1 -1</clus>
</clustering>
</event>
<event>
 6   2  0.3464723E-02  0.3529916E+03  0.7816531E-02  0.1061394E+00
       21   -1    0    0  505  502  0.00000000000E+00  0.00000000000E+00  0.42312268504E+03  0.42312268504E+03  0.00000000000E+00 0.  1.
       21   -1    0    0  504  503  0.00000000000E+00  0.00000000000E+00 -0.10034729434E+04  0.10034729434E+04  0.00000000000E+00 0.  1.
  1000006    1    1    2  501    0  0.10461242202E+03 -0.54532433240E+02 -0.25062709516E+02  0.37019681863E+03  0.35000000000E+03 0.  0.
 -1000006    1    1    2    0  502  0.41116442695E+02  0.33407320360E+02  0.93689587042E+02  0.36617529905E+03  0.35000000000E+03 0.  0.
       21    1    1    2  504  501 -0.26354688809E+02  0.44131882372E+02 -0.30200942250E+02  0.59617862899E+02  0.00000000000E+00 0.  1.
       21    1    1    2  505  503 -0.11937417590E+03 -0.23006769492E+02 -0.61877619362E+03  0.63060564786E+03  0.00000000000E+00 0.  1.
<scales pt_clust_1="13000.00000" pt_clust_2="13000.00000" pt_clust_3="51.40226" pt_clust_4="136.67056"></scales>
<clustering>
<clus scale="   51.402">  2  5  1 -1</clus>
<clus scale="  136.671">  2  6  1 -1</clus>
<clus scale="  352.992">  2  3  1 -1</clus>
<clus scale="  352.992">  1  3  2 -1</clus>
</clustering>
</event>
<event>
 6   2  0.3464723E-02  0.4073510E+03  0.7816531E-02  0.1041264E+00
       21   -1    0    0  502  503  0.00000000000E+00  0.00000000000E+00  0.95141401318E+03  0.95141401318E+03  0.00000000000E+00 0.  1.
        2   -1    0    0  501    0  0.00000000000E+00  0.00000000000E+00 -0.20520310265E+04  0.20520310265E+04  0.00000000000E+00 0.  1.
  1000006    1    1    2  501    0  0.46435396870E+02  0.10056137185E+03 -0.18175826904E+03  0.40963996870E+03  0.35000000000E+03 0.  0.
 -1000006    1    1    2    0  504 -0.26405066868E+03  0.14613955650E+03  0.38763688543E+03  0.60319307071E+03  0.35000000000E+03 0.  0.
       21    1    1    2  504  503  0.12751721051E+02 -0.49456055149E+02  0.32780151050E+03  0.33175644389E+03  0.00000000000E+00 0. -1.
        2    1    1    2  502    0  0.20486355076E+03 -0.19724487320E+03 -0.16342971402E+04  0.16588555564E+04  0.00000000000E+00 0.  1.
<scales pt_clust_1="13000.00000" pt_clust_2="13000.00000" pt_clust_3="51.07355" pt_clust_4="285.24414"></scales>
<clustering>
<clus scale="   51.074">  1  5  2 -1</clus>
<clus scale="  285.244">  2  6  1 -1</clus>
<clus scale="  407.351">  1  4  2 -1</clus>
<clus scale="  407.351">  1  3  2 -1</clus>
</clustering>
</event>
<event>
 5   1  0.3464723E-02  0.3627142E+03  0.7816531E-02  0.1057514E+00
       21   -1    0    0  503  502  0.00000000000E+00  0.00000000000E+00  0.16639588956E+04  0.16639588956E+04  0.00000000000E+00 0. -1.
       21   -1    0    0  504  503  0.00000000000E+00  0.00000000000E+00 -0.17552299013E+03  0.17552299013E+03  0.00000000000E+00 0. -1.
  1000006    1    1    2  501    0  0.79754569623E+02 -0.25513635387E+02  0.38681539630E+03  0.52833501472E+03  0.35000000000E+03 0.  0.
 -1000006    1    1    2    0  502 -0.10056977976E+03  0.29993034937E+01  0.11757863279E+04  0.12308926701E+04  0.35000000000E+03 0.  0.
       21    1    1    2  504  501  0.20815210142E+02  0.22514331893E+02 -0.74165818667E+02  0.80254200964E+02  0.00000000000E+00 0. -1.
<scales pt_clust_1="13000.00000" pt_clust_2="13000.00000" pt_clust_3="30.66216"></scales>
<clustering>
<clus scale="   30.662">  2  5  1 -1</clus>
<clus scale="  362.714">  1  4  2 -1</clus>
<clus scale="  362.714">  1  3  2 -1</clus>
</clustering>
</event>
<event>
 5   1  0.3464723E-02  0.4652333E+03  0.7816531E-02  0.1023274E+00
       21   -1    0    0  502  503  0.00000000000E+00  0.00000000000E+00  0.43249605961E+03  0.43249605961E+03  0.00000000000E+00 0.  1.
        2   -1    0    0  501    0  0.00000000000E+00  0.00000000000E+00 -0.36564160145E+04  0.36564160145E+04  0.00000000000E+00 0. -1.
  1000006    1    1    2  501    0 -0.29868201442E+03  0.12914440786E+03 -0.59658182617E+03  0.76439459648E+03  0.35000000000E+03 0.  0.
 -1000006    1    1    2    0  503  0.29139968426E+03 -0.82139586092E+02  0.19471009018E+03  0.50206842841E+03  0.35000000000E+03 0.  0.
        2    1    1    2  502    0  0.72823301636E+01 -0.47004821770E+02 -0.28220482189E+04  0.28224490492E+04  0.00000000000E+00 0. -1.
<scales pt_clust_1="13000.00000" pt_clust_2="13000.00000" pt_clust_3="47.56559"></scales>
<clustering>
<clus scale="   47.566">  2  5  1 -1</clus>
<clus scale="  465.233">  1  4  2 -1</clus>
<clus scale="  465.233">  1  3  2 -1</clus>
</clustering>
</event>
<event>
 4   0  0.3464723E-02  0.4244715E+03  0.7816531E-02  0.1035621E+00
       21   -1    0    0  503  502  0.00000000000E+00  0.00000000000E+00  0.93429952430E+03  0.93429952430E+03  0.00000000000E+00 0.  1.
       21   -1    0    0  501  503  0.00000000000E+00  0.00000000000E+00 -0.37589305176E+03  0.37589305176E+03  0.00000000000E+00 0.  1.
  1000006    1    1    2  501    0 -0.12580885728E+03  0.20456820168E+03 -0.17794204618E+03  0.46026013243E+03  0.35000000000E+03 0.  0.
 -1000006    1    1    2    0  502  0.12580885728E+03 -0.20456820168E+03  0.73634851872E+03  0.84993244362E+03  0.35000000000E+03 0.  0.
<scales pt_clust_1="13000.00000" pt_clust_2="13000.00000"></scales>
<clustering>
<clus scale="  424.471">  2  3  1 -1</clus>
<clus scale="  424.471">  1  3  2 -1</clus>
</clustering>
</event>
<event>
 6   2  0.3464723E-02  0.3680802E+03  0.7816531E-02  0.1055429E+00
       21   -1    0    0  504  503  0.00000000000E+00  0.00000000000E+00  0.86411348107E+03  0.86411348107E+03  0.00000000000E+00 0. -1.
        2   -1    0    0  501    0  0.00000000000E+00  0.00000000000E+00 -0.41461277667E+03  0.41461277667E+03  0.00000000000E+00 0. -1.
  1000006    1    1    2  501    0  0.11968129816E+03  0.15429658458E+02  0.27978595835E+03  0.46404942623E+03  0.35000000000E+03 0.  0.
 -1000006    1    1    2    0  503 -0.98265224382E+02  0.78596236229E+02  0.40589320062E+03  0.55052948421E+03  0.35000000000E+03 0.  0.
       21    1    1    2  504  502 -0.44610193068E+02 -0.66354521479E+02 -0.13732225848E+03  0.15890372721E+03  0.00000000000E+00 0.  1.
        2    1    1    2  502    0  0.23194119295E+02 -0.27671373208E+02 -0.98856196094E+02  0.10524362010E+03  0.00000000000E+00 0. -1.
<scales pt_clust_1="13000.00000" pt_clust_2="13000.00000" pt_clust_3="86.28597" pt_clust_4="36.10640"></scales>
<clustering>
<clus scale="   36.106">  2  6  1 -1</clus>
<clus scale="   86.286">  2  5  1 -1</clus>
<clus scale="  368.080">  2  3  1 -1</clus>
<clus scale="  368.080">  1  3  2 -1</clus>
</clustering>
</event>
<event>
 4   0  0.3464723E-02  0.4334872E+03  0.7816531E-02  0.1032764E+00
       21   -1    0    0  503  502  0.00000000000E+00  0.00000000000E+00  0.38400627505E+03  0.38400627505E+03  0.00000000000E+00 0. -1.
       21   -1    0    0  501  503  0.00000000000E+00  0.00000000000E+00 -0.54126915512E+03  0.54126915512E+03  0.00000000000E+00 0. -1.
  1000006    1    1    2  501    0 -0.23876312024E+03 -0.91669725168E+02 -0.22192388805E+03  0.48699217467E+03  0.35000000000E+03 0.  0.
 -1000006    1    1    2    0  502  0.23876312024E+03  0.91669725168E+02  0.64661007983E+02  0.43828325550E+03  0.35000000000E+03 0.  0.
<scales pt_clust_1="13000.00000" pt_clust_2="13000.00000"></scales>
<clustering>
<clus scale="  433.487">  2  3  1 -1</clus>
<clus scale="  433.487">  1  3  2 -1</clus>
</clustering>
</event>
<event>
 6   2  0.3464723E-02  0.3583336E+03  0.7816531E-02  0.1059246E+00
       21   -1    0    0  501  502  0.00000000000E+00  0.00000000000E+00  0.41953333268E+03  0.41953333268E+03  0.00000000000E+00 0. -1.
       21   -1    0    0  504  503  0.00000000000E+00  0.00000000000E+00 -0.84217190888E+03  0.84217190888E+03  0.00000000000E+00 0. -1.
  1000006    1    1    2  501    0  0.20822349510E+02 -0.30334122236E+02  0.42998305028E+02  0.35454560136E+03  0.35000000000E+03 0.  0.
 -1000006    1    1    2    0  503 -0.37702866103E+02  0.11402934224E+03  0.16927642680E+02  0.37041968372E+03  0.35000000000E+03 0.  0.
       21    1    1    2  504  505  0.36721143619E+02 -0.47059063626E+02 -0.49067658005E+03  0.49429394501E+03  0.00000000000E+00 0. -1.
       21    1    1    2  505  502 -0.19840627026E+02 -0.36636156374E+02  0.81120561436E+01  0.42446011468E+02  0.00000000000E+00 0.  1.
<scales pt_clust_1="13000.00000" pt_clust_2="13000.00000" pt_clust_3="59.76762" pt_clust_4="41.66363"></scales>
<clustering>
<clus scale="   41.664">  1  6  2 -1</clus>
<clus scale="   59.768">  2  5  1 -1</clus>
<clus scale="  358.334">  1  3  2 -1</clus>
<clus scale="  358.334">  1  3  2 -1</clus>
</clustering>
</event>
<event>
 5   1  0.3464723E-02  0.3730949E+03  0.7816531E-02  0.1053516E+00
        2   -1    0    0  503    0  0.00000000000E+00  0.00000000000E+00  0.11301059114E+04  0.11301059114E+04  0.00000000000E+00 0. -1.
       -2   -1    0    0    0  501  0.00000000000E+00  0.00000000000E+00 -0.14231029068E+03  0.14231029068E+03  0.00000000000E+00 0.  1.
  1000006    1    1    2  502    0 -0.15879180735E+02  0.10549657259E+03  0.40536174310E+03  0.54607675100E+03  0.35000000000E+03 0.  0.
 -1000006    1    1    2    0  501  0.27823609042E+02 -0.15328979270E+03  0.49443952801E+03  0.62549369352E+03  0.35000000000E+03 0.  0.
       21    1    1    2  503  502 -0.11944428307E+02  0.47793220110E+02  0.87994349606E+02  0.10084575756E+03  0.00000000000E+00 0. -1.
<scales pt_clust_1="13000.00000" pt_clust_2="13000.00000" pt_clust_3="49.26318"></scales>
<clustering>
<clus scale="   49.263">  1  5  2 -1</clus>
<clus scale="  439.327">  3  4 -1 -1</clus>
<clus scale="  373.095">  1  3  2 -1</clus>
</clustering>
</event>
<event>
 5   1  0.3464723E-02  0.4332803E+03  0.7816531E-02  0.1032829E+00
        1   -1    0    0  503    0  0.00000000000E+00  0.00000000000E+00  0.20725236908E+03  0.20725236908E+03  0.00000000000E+00 0.  1.
       21   -1    0    0  501  503  0.00000000000E+00  0.00000000000E+00 -0.25987028127E+04  0.25987028127E+04  0.00000000000E+00 0. -1.
  1000006    1    1    2  501    0 -0.12570514927E+03  0.20985511986E+03 -0.12649356524E+04  0.13350667251E+04  0.35000000000E+03 0.  0.
 -1000006    1    1    2    0  502  0.23275042007E+03 -0.15714138923E+03 -0.12322789422E+04  0.13114410264E+04  0.35000000000E+03 0.  0.
        1    1    1    2  502    0 -0.10704527079E+03 -0.52713730635E+02  0.10576415096E+03  0.15944743029E+03  0.00000000000E+00 0.  1.
<scales pt_clust_1="13000.00000" pt_clust_2="13000.00000" pt_clust_3="119.32069"></scales>
<clustering>
<clus scale="  119.321">  1  5  2 -1</clus>
<clus scale="  433.280">  1  4  2 -1</clus>
<clus scale="  433.280">  2  3  1 -1</clus>
</clustering>
</event>
<event>
 4   0  0.3464723E-02  0.3882475E+03  0.7816531E-02  0.1047927E+00
       21   -1    0    0  503  502  0.00000000000E+00  0.00000000000E+00  0.81025993266E+02  0.81025993266E+02  0.00000000000E+00 0.  1.
       21   -1    0    0  501  503  0.00000000000E+00  0.00000000000E+00 -0.25584691936E+04  0.25584691936E+04  0.00000000000E+00 0.  1.
  1000006    1    1    2  501    0 -0.13803331030E+03 -0.95827741074E+02 -0.19281159279E+04  0.19668165095E+04  0.35000000000E+03 0.  0.
 -1000006    1    1    2    0  502  0.13803331030E+03  0.95827741074E+02 -0.54932727243E+03  0.67267867734E+03  0.35000000000E+03 0.  0.
<scales pt_clust_1="13000.00000" pt_clust_2="13000.00000"></scales>
<clustering>
<clus scale="  388.248">  2  3  1 -1</clus>
<clus scale="  388.248">  1  3  2 -1</clus>
</clustering>
</event>
<event>
 6   2  0.3464723E-02  0.3711953E+03  0.7816531E-02  0.1054237E+00
        2   -1    0    0  503    0  0.00000000000E+00  0.00000000000E+00  0.87459946065E+03  0.87459946065E+03  0.00000000000E+00 0.  1.
       21   -1    0    0  504  503  0.00000000000E+00  0.00000000000E+00 -0.66908193832E+03  0.66908193832E+03  0.00000000000E+00 0.  1.
  1000006    1    1    2  501    0 -0.23640438280E+01 -0.15524652290E+03 -0.44653648061E+03  0.58821926192E+03  0.35000000000E+03 0.  0.
 -1000006    1    1    2    0  502  0.32399412134E+02  0.14146165393E+03  0.58469713749E+03  0.69672940517E+03  0.35000000000E+03 0.  0.
       21    1    1    2  504  501  0.15642842659E+02  0.38193108555E+02 -0.86797795571E+02  0.96110714197E+02  0.00000000000E+00 0.  1.
        2    1    1    2  502    0 -0.45678210965E+02 -0.24408239582E+02  0.15415466103E+03  0.16262201767E+03  0.00000000000E+00 0.  1.
<scales pt_clust_1="13000.00000" pt_clust_2="13000.00000" pt_clust_3="41.27241" pt_clust_4="51.55786"></scales>
<clustering>
<clus scale="   41.272">  2  5  1 -1</clus>
<clus scale="   51.558">  1  6  2 -1</clus>
<clus scale="  371.195">  2  3  1 -1</clus>
<clus scale="  371.195">  2  3  1 -1</clus>
</clustering>
</event>
<event>
 5   1  0.3464723E-02  0.3559985E+03  0.7816531E-02  0.1060180E+00
       21   -1    0    0  504  502  0.00000000000E+00  0.00000000000E+00  0.25098655191E+03  0.25098655191E+03  0.00000000000E+00 0.  1.
       21   -1    0    0  501  503  0.00000000000E+00  0.00000000000E+00 -0.87677110772E+03  0.87677110772E+03  0.00000000000E+00 0.  1.
  1000006    1    1    2  501    0  0.19745993691E+02 -0.77608230205E+02 -0.40141173648E+03  0.53855763280E+03  0.35000000000E+03 0.  0.
 -1000006    1    1    2    0  502 -0.35158876001E+02  0.38378817091E+02 -0.32478121001E+03  0.48030398139E+03  0.35000000000E+03 0.  0.
       21    1    1    2  504  503  0.15412882310E+02  0.39229413114E+02  0.10040839068E+03  0.10889604544E+03  0.00000000000E+00 0.  1.
<scales pt_clust_1="13000.00000" pt_clust_2="13000.00000" pt_clust_3="42.14859"></scales>
<clustering>
<clus scale="   42.149">  1  5  2 -1</clus>
<clus scale="  355.998">  2  3  1 -1</clus>
<clus scale="  355.998">  1  3  2 -1</clus>
</clustering>
</event>
<event>
 6   2  0.3464723E-02  0.4450951E+03  0.7816531E-02  0.1029195E+00
        2   -1    0    0  504    0  0.00000000000E+00  0.00000000000E+00  0.20166881291E+04  0.20166881291E+04  0.00000000000E+00 0.  1.
       21   -1    0    0  501  503  0.00000000000E+00  0.00000000000E+00 -0.10270839343E+04  0.10270839343E+04  0.00000000000E+00 0. -1.
  1000006    1    1    2  501    0  0.13462480452E+03 -0.26478874681E+03 -0.76216127517E+03  0.88973407701E+03  0.35000000000E+03 0.  0.
 -1000006    1    1    2    0  502 -0.14436219221E+03  0.26461232146E+03  0.16189545005E+03  0.48945915045E+03  0.35000000000E+03 0.  0.
       21    1    1    2  504  503 -0.28924495467E+02  0.23902165831E+02 -0.27532669007E+02  0.46540174388E+02  0.00000000000E+00 0. -1.
        2    1    1    2  502    0  0.38661883153E+02 -0.23725740482E+02  0.16174026890E+04  0.16180386615E+04  0.00000000000E+00 0.  1.
<scales pt_clust_1="13000.00000" pt_clust_2="13000.00000" pt_clust_3="37.52253" pt_clust_4="45.34942"></scales>
<clustering>
<clus scale="   37.523">  2  5  1 -1</clus>
<clus scale="   45.349">  1  6  2 -1</clus>
<clus scale="  445.095">  2  3  1 -1</clus>
<clus scale="  445.095">  2  3  1 -1</clus>
</clustering>
</event>
<event>
 5   1  0.3464723E-02  0.4256009E+03  0.7816531E-02  0.1035259E+00
       21   -1    0    0  503  502  0.00000000000E+00  0.00000000000E+00  0.41457850556E+03  0.41457850556E+03  0.00000000000E+00 0. -1.
       21   -1    0    0  501  503  0.00000000000E+00  0.00000000000E+00 -0.13356079920E+04  0.13356079920E+04  0.00000000000E+00 0.  1.
  1000006    1    1    2  501    0  0.29135058495E+03 -0.76581001692E+02 -0.79771077485E+03  0.92173330931E+03  0.35000000000E+03 0.  0.
 -1000006    1    1    2    0  504 -0.16960449834E+03 -0.19290302076E+02 -0.36998693173E+03  0.53714814648E+03  0.35000000000E+03 0.  0.
       21    1    1    2  504  502 -0.12174608661E+03  0.95871303768E+02  0.24666822018E+03  0.29130504173E+03  0.00000000000E+00 0. -1.
<scales pt_clust_1="13000.00000" pt_clust_2="13000.00000" pt_clust_3="154.96263"></scales>
<clustering>
<clus scale="  154.963">  1  5  2 -1</clus>
<clus scale="  425.601">  1  4  2 -1</clus>
<clus scale="  425.601">  1  3  2 -1</clus>
</clustering>
</event>
<event>
 5   1  0.3464723E-02  0.4974216E+03  0.7816531E-02  0.1014454E+00
       21   -1    0    0  504  502  0.00000000000E+00  0.00000000000E+00  0.46256231809E+03  0.46256231809E+03  0.00000000000E+00 0. -1.
       21   -1    0    0  501  503  0.00000000000E+00  0.00000000000E+00 -0.12386305408E+04  0.12386305408E+04  0.00000000000E+00 0. -1.
  1000006    1    1    2  501    0 -0.54504889731E+03 -0.96225040850E+02 -0.31066478915E+03  0.72481043740E+03  0.35000000000E+03 0.  0.
 -1000006    1    1    2    0  502  0.25921849085E+03 -0.81514451394E+02 -0.56379059274E+02  0.44667374011E+03  0.35000000000E+03 0.  0.
       21    1    1    2  504  503  0.28583040646E+03  0.17773949224E+03 -0.40902437429E+03  0.52970868137E+03  0.00000000000E+00 0. -1.
<scales pt_clust_1="13000.00000" pt_clust_2="13000.00000" pt_clust_3="336.58632"></scales>
<clustering>
<clus scale="  336.586">  2  5  1 -1</clus>
<clus scale="  497.422">  2  3  1 -1</clus>
<clus scale="  497.422">  1  3  2 -1</clus>
</clustering>
</event>
<event>
 5   1  0.3464723E-02  0.4039004E+03  0.7816531E-02  0.1042437E+00
       21   -1    0    0  504  502  0.00000000000E+00  0.00000000000E+00  0.84962187354E+03  0.84962187354E+03  0.00000000000E+00 0. -1.
       21   -1    0    0  502  503  0.00000000000E+00  0.00000000000E+00 -0.29701569506E+03  0.29701569506E+03  0.00000000000E+00 0. -1.
  1000006    1    1    2  501    0 -0.10902897200E+03  0.13961097652E+03  0.51204643335E+03  0.64503495363E+03  0.35000000000E+03 0.  0.
 -1000006    1    1    2    0  503  0.12039861536E+03 -0.17128624584E+03 -0.44369972478E+02  0.41024809451E+03  0.35000000000E+03 0.  0.
       21    1    1    2  504  501 -0.11369643360E+02  0.31675269319E+02  0.84929717600E+02  0.91354520459E+02  0.00000000000E+00 0. -1.
<scales pt_clust_1="13000.00000" pt_clust_2="13000.00000" pt_clust_3="33.65400"></scales>
<clustering>
<clus scale="   33.654">  1  5  2 -1</clus>
<clus scale="  403.900">  1  3  2 -1</clus>
<clus scale="  403.900">  1  3  2 -1</clus>
</clustering>
</event>
<event>
 5   1  0.3464723E-02  0.3876052E+03  0.7816531E-02  0.1048158E+00
       21   -1    0    0  504  502  0.00000000000E+00  0.00000000000E+00  0.76368433391E+03  0.76368433391E+03  0.00000000000E+00 0.  1.
       21   -1    0    0  501  503  0.00000000000E+00  0.00000000000E+00 -0.26104427069E+03  0.26104427069E+03  0.00000000000E+00 0.  1.
  1000006    1    1    2  501    0  0.19759140372E+03  0.26819291308E+02  0.11929453074E+03  0.42011048818E+03  0.35000000000E+03 0.  0.
 -1000006    1    1    2    0  502 -0.11644671144E+03 -0.49543644124E+02  0.25526540961E+03  0.45130348838E+03  0.35000000000E+03 0.  0.
       21    1    1    2  504  503 -0.81144692283E+02  0.22724352816E+02  0.12808012288E+03  0.15331462804E+03  0.00000000000E+00 0. -1.
<scales pt_clust_1="13000.00000" pt_clust_2="13000.00000" pt_clust_3="84.26658"></scales>
<clustering>
<clus scale="   84.267">  1  5  2 -1</clus>
<clus scale="  387.605">  2  3  1 -1</clus>
<clus scale="  387.605">  1  3  2 -1</clus>
</clustering>
</event>
<event>
 4   0  0.3464723E-02  0.4128127E+03  0.7816531E-02  0.1039431E+00
       21   -1    0    0  501  502  0.00000000000E+00  0.00000000000E+00  0.93636923197E+03  0.93636923197E+03  0.00000000000E+00 0.  1.
       21   -1    0    0  502  503  0.00000000000E+00  0.00000000000E+00 -0.25725107995E+03  0.25725107995E+03  0.00000000000E+00 0.  1.
  1000006    1    1    2  501    0 -0.19020036374E+03  0.10834280626E+03  0.66235566825E+03  0.78046740694E+03  0.35000000000E+03 0.  0.
 -1000006    1    1    2    0  503  0.19020036374E+03 -0.10834280626E+03  0.16762483766E+02  0.41315290498E+03  0.35000000000E+03 0.  0.
<scales pt_clust_1="13000.00000" pt_clust_2="13000.00000"></scales>
<clustering>
<clus scale="  412.813">  1  3  2 -1</clus>
<clus scale="  412.813">  1  3  2 -1</clus>
</clustering>
</event>
<event>
 6   2  0.3464723E-02  0.3935924E+03  0.7816531E-02  0.1046021E+00
       21   -1    0    0  504  503  0.00000000000E+00  0.00000000000E+00  0.46303964198E+03  0.46303964198E+03  0.00000000000E+00 0.  1.
       21   -1    0    0  501  504  0.00000000000E+00  0.00000000000E+00 -0.82529270611E+03  0.82529270611E+03  0.00000000000E+00 0.  1.
  1000006    1    1    2  501    0  0.98004342177E+02 -0.17711020087E+03 -0.28600261711E+03  0.49524778781E+03  0.35000000000E+03 0.  0.
 -1000006    1    1    2    0  502  0.57243517292E+02  0.17920844084E+03 -0.19927195460E+03  0.44452423717E+03  0.35000000000E+03 0.  0.
        3    1    1    2  502    0 -0.10472519864E+03  0.12104309045E+03 -0.10014659335E+02  0.16037172562E+03  0.00000000000E+00 0.  1.
       -3    1    1    2    0  503 -0.50522660825E+02 -0.12314133043E+03  0.13303616692E+03  0.18818859749E+03  0.00000000000E+00 0. -1.
<scales pt_clust_1="13000.00000" pt_clust_2="13000.00000" pt_clust_3="148.09991" pt_clust_4="133.10269"></scales>
<clustering>
<clus scale="  133.103">  1  6  2 -1</clus>
<clus scale="  148.100">  1  5  2 -1</clus>
<clus scale="  393.592">  2  3  1 -1</clus>
<clus scale="  393.592">  1  3  2 -1</clus>
</clustering>
</event>
<event>
 4   0  0.3464723E-02  0.4133202E+03  0.7816531E-02  0.1039263E+00
       21   -1    0    0  501  502  0.00000000000E+00  0.00000000000E+00  0.77122854701E+03  0.77122854701E+03  0.00000000000E+00 0.  1.
       21   -1    0    0  502  503  0.00000000000E+00  0.00000000000E+00 -0.24389785658E+03  0.24389785658E+03  0.00000000000E+00 0.  1.
  1000006    1    1    2  501    0  0.10198171498E+03 -0.19476473212E+03  0.41744833334E+03  0.58744930171E+03  0.35000000000E+03 0.  0.
 -1000006    1    1    2    0  503 -0.10198171498E+03  0.19476473212E+03  0.10988235709E+03  0.42767710188E+03  0.35000000000E+03 0.  0.
<scales pt_clust_1="13000.00000" pt_clust_2="13000.00000"></scales>
<clustering>
<clus scale="  413.320">  1  3  2 -1</clus>
<clus scale="  413.320">  1  3  2 -1</clus>
</clustering>
</event>
<event>
 5   1  0.3464723E-02  0.4924541E+03  0.7816531E-02  0.1015767E+00
       21   -1    0    0  501  502  0.00000000000E+00  0.00000000000E+00  0.10157922681E+04  0.10157922681E+04  0.00000000000E+00 0.  1.
       21   -1    0    0  502  503  0.00000000000E+00  0.00000000000E+00 -0.12735962126E+04  0.12735962126E+04  0.00000000000E+00 0.  1.
  1000006    1    1    2  501    0  0.29290109950E+02  0.36864623664E+03  0.42977665591E+03  0.66630768591E+03  0.35000000000E+03 0.  0.
 -1000006    1    1    2    0  504 -0.21159395722E+03 -0.27952398769E+03  0.32361864252E+03  0.59172179968E+03  0.35000000000E+03 0.  0.
       21    1    1    2  504  503  0.18230384727E+03 -0.89122248951E+02 -0.10111992429E+04  0.10313589951E+04  0.00000000000E+00 0.  1.
<scales pt_clust_1="13000.00000" pt_clust_2="13000.00000" pt_clust_3="202.92232"></scales>
<clustering>
<clus scale="  202.922">  2  5  1 -1</clus>
<clus scale="  492.454">  1  3  2 -1</clus>
<clus scale="  492.454">  1  3  2 -1</clus>
</clustering>
</event>
<event>
 5   1  0.3464723E-02  0.4212017E+03  0.7816531E-02  0.1036676E+00
       21   -1    0    0  504  502  0.00000000000E+00  0.00000000000E+00  0.15593543044E+04  0.15593543044E+04  0.00000000000E+00 0.  1.
       21   -1    0    0  501  503  0.00000000000E+00  0.00000000000E+00 -0.19734524237E+03  0.19734524237E+03  0.00000000000E+00 0.  1.
  1000006    1    1    2  501    0 -0.88759634684E+02  0.21036544516E+03  0.13425064250E+03  0.43892496885E+03  0.35000000000E+03 0.  0.
 -1000006    1    1    2    0  502  0.12675875534E+03 -0.22604978882E+03  0.10828010164E+04  0.11671008226E+04  0.35000000000E+03 0.  0.
       21    1    1    2  504  503 -0.37999120660E+02  0.15684343659E+02  0.14495740314E+03  0.15067375529E+03  0.00000000000E+00 0.  1.
<scales pt_clust_1="13000.00000" pt_clust_2="13000.00000" pt_clust_3="41.10878"></scales>
<clustering>
<clus scale="   41.109">  1  5  2 -1</clus>
<clus scale="  421.202">  2  3  1 -1</clus>
<clus scale="  421.202">  1  3  2 -1</clus>
</clustering>
</event>
<event>
 5   1  0.3464723E-02  0.5780979E+03  0.7816531E-02  0.9951917E-01
       21   -1    0    0  501  502  0.00000000000E+00  0.00000000000E+00  0.88674724805E+03  0.88674724805E+03  0.00000000000E+00 0. -1.
       21   -1    0    0  504  503  0.00000000000E+00  0.00000000000E+00 -0.43052931372E+03  0.43052931372E+03  0.00000000000E+00 0. -1.
  1000006    1    1    2  501    0  0.44321931191E+03 -0.20594716419E+03  0.27199772250E+03  0.65980326911E+03  0.35000000000E+03 0.  0.
 -1000006    1    1    2    0  503 -0.37639584924E+03  0.21152450761E+03  0.19608193666E+03  0.58937643194E+03  0.35000000000E+03 0.  0.
       21    1    1    2  504  502 -0.66823462671E+02 -0.55773434223E+01 -0.11861724835E+02  0.68096860714E+02  0.00000000000E+00 0. -1.
<scales pt_clust_1="13000.00000" pt_clust_2="13000.00000" pt_clust_3="67.05581"></scales>
<clustering>
<clus scale="   67.056">  2  5  1 -1</clus>
<clus scale="  578.098">  1  3  2 -1</clus>
<clus scale="  578.098">  1  3  2 -1</clus>
</clustering>
</event>
<event>
 6   2  0.3464723E-02  0.5397993E+03  0.7816531E-02  0.1003883E+00
       21   -1    0    0  505  502  0.00000000000E+00  0.00000000000E+00  0.38799590025E+03  0.38799590025E+03  0.00000000000E+00 0.  1.
       21   -1    0    0  502  503  0.00000000000E+00  0.00000000000E+00 -0.14893391107E+04  0.14893391107E+04  0.00000000000E+00 0. -1.
  1000006    1    1    2  501    0 -0.27011120823E+03  0.28452866844E+03 -0.36081162972E+03  0.63765324441E+03  0.35000000000E+03 0.  0.
 -1000006    1    1    2    0  504  0.35231315072E+03 -0.24443759992E+03 -0.52872820447E+03  0.76545921552E+03  0.35000000000E+03 0.  0.
       21    1    1    2  504  503 -0.87735663529E+01 -0.36611604609E+02 -0.33156722140E+03  0.33369777849E+03  0.00000000000E+00 0. -1.
       21    1    1    2  505  501 -0.73428376140E+02 -0.34794639063E+01  0.11976384514E+03  0.14052477252E+03  0.00000000000E+00 0.  1.
<scales pt_clust_1="13000.00000" pt_clust_2="13000.00000" pt_clust_3="37.64817" pt_clust_4="73.60568"></scales>
<clustering>
<clus scale="   37.648">  2  5  1 -1</clus>
<clus scale="   73.606">  1  6  2 -1</clus>
<clus scale="  539.799">  1  3  2 -1</clus>
<clus scale="  539.799">  1  3  2 -1</clus>
</clustering>
</event>
<event>
 5   1  0.3464723E-02  0.3656652E+03  0.7816531E-02  0.1056363E+00
        2   -1    0    0  503    0  0.00000000000E+00  0.00000000000E+00  0.33282076967E+04  0.33282076967E+04  0.00000000000E+00 0. -1.
       21   -1    0    0  501  503  0.00000000000E+00  0.00000000000E+00 -0.12165079628E+04  0.12165079628E+04  0.00000000000E+00 0. -1.
  1000006    1    1    2  501    0 -0.27763980009E+02 -0.74052400087E+02 -0.84513024771E+03  0.91815016862E+03  0.35000000000E+03 0.  0.
 -1000006    1    1    2    0  502  0.35242961046E+03  0.45150380141E+02 -0.13572439169E+03  0.51688131873E+03  0.35000000000E+03 0.  0.
        2    1    1    2  502    0 -0.32466563045E+03  0.28902019946E+02  0.30925543733E+04  0.31096841721E+04  0.00000000000E+00 0. -1.
<scales pt_clust_1="13000.00000" pt_clust_2="13000.00000" pt_clust_3="325.94953"></scales>
<clustering>
<clus scale="  325.950">  1  5  2 -1</clus>
<clus scale="  365.665">  1  4  2 -1</clus>
<clus scale="  365.665">  2  3  1 -1</clus>
</clustering>
</event>
<event>
 6   2  0.3464723E-02  0.5199616E+03  0.7816531E-02  0.1008696E+00
       21   -1    0    0  501  503  0.00000000000E+00  0.00000000000E+00  0.72565230445E+03  0.72565230445E+03  0.00000000000E+00 0. -1.
        1   -1    0    0  504    0  0.00000000000E+00  0.00000000000E+00 -0.22719421478E+04  0.22719421478E+04  0.00000000000E+00 0. -1.
  1000006    1    1    2  501    0  0.35581793414E+03 -0.22316951855E+03  0.39486880626E+03  0.67441264106E+03  0.35000000000E+03 0.  0.
 -1000006    1    1    2    0  502 -0.28674364409E+03 -0.38295930911E+02 -0.59247838371E+03  0.74647111861E+03  0.35000000000E+03 0.  0.
       21    1    1    2  504  503 -0.23826540771E+02 -0.35676673466E+02  0.93854736035E+02  0.10319515759E+03  0.00000000000E+00 0.  1.
        1    1    1    2  502    0 -0.45247749273E+02  0.29714212293E+03 -0.14425350019E+04  0.14735155350E+04  0.00000000000E+00 0. -1.
<scales pt_clust_1="13000.00000" pt_clust_2="13000.00000" pt_clust_3="42.90139" pt_clust_4="299.78573"></scales>
<clustering>
<clus scale="   42.901">  1  5  2 -1</clus>
<clus scale="  299.786">  2  6  1 -1</clus>
<clus scale="  519.962">  1  3  2 -1</clus>
<clus scale="  519.962">  1  3  2 -1</clus>
</clustering>
</event>
<event>
 4   0  0.3464723E-02  0.3738402E+03  0.7816531E-02  0.1053234E+00
       21   -1    0    0  503  502  0.00000000000E+00  0.00000000000E+00  0.44225274503E+03  0.44225274503E+03  0.00000000000E+00 0. -1.
       21   -1    0    0  501  503  0.00000000000E+00  0.00000000000E+00 -0.31783943886E+03  0.31783943886E+03  0.00000000000E+00 0. -1.
  1000006    1    1    2  501    0 -0.76744351909E+02  0.10661526724E+03  0.33377488422E+02  0.37532728051E+03  0.35000000000E+03 0.  0.
 -1000006    1    1    2    0  502  0.76744351909E+02 -0.10661526724E+03  0.91035817746E+02  0.38476490338E+03  0.35000000000E+03 0.  0.
<scales pt_clust_1="13000.00000" pt_clust_2="13000.00000"></scales>
<clustering>
<clus scale="  373.840">  2  3  1 -1</clus>
<clus scale="  373.840">  1  3  2 -1</clus>
</clustering>
</event>
<event>
 4   0  0.3464723E-02  0.3653699E+03  0.7816531E-02  0.1056478E+00
       21   -1    0    0  503  502  0.00000000000E+00  0.00000000000E+00  0.19052575960E+03  0.19052575960E+03  0.00000000000E+00 0.  1.
       21   -1    0    0  501  503  0.00000000000E+00  0.00000000000E+00 -0.11947292250E+04  0.11947292250E+04  0.00000000000E+00 0.  1.
  1000006    1    1    2  501    0  0.10336388872E+03 -0.17636172886E+02 -0.94750743320E+03  0.10155124145E+04  0.35000000000E+03 0.  0.
 -1000006    1    1    2    0  502 -0.10336388872E+03  0.17636172886E+02 -0.56696032244E+02  0.36974257012E+03  0.35000000000E+03 0.  0.
<scales pt_clust_1="13000.00000" pt_clust_2="13000.00000"></scales>
<clustering>
<clus scale="  365.370">  2  3  1 -1</clus>
<clus scale="  365.370">  1  3  2 -1</clus>
</clustering>
</event>
<event>
 6   2  0.3464723E-02  0.3523624E+03  0.7816531E-02  0.1061650E+00
       21   -1    0    0  504  503  0.00000000000E+00  0.00000000000E+00  0.11197606166E+04  0.11197606166E+04  0.00000000000E+00 0.  1.
        3   -1    0    0  503    0  0.00000000000E+00  0.00000000000E+00 -0.10084991116E+04  0.10084991116E+04  0.00000000000E+00 0.  1.
  1000006    1    1    2  501    0 -0.95495483647E+02  0.15038496049E+02 -0.70793501296E+02  0.36994224358E+03  0.35000000000E+03 0.  0.
 -1000006    1    1    2    0  502  0.31421989097E+01 -0.30782605715E+02 -0.20898411379E+03  0.40881756572E+03  0.35000000000E+03 0.  0.
       21    1    1    2  504  501  0.12984587853E+03  0.13755128945E+02  0.86462469760E+03  0.87442839812E+03  0.00000000000E+00 0.  1.
        3    1    1    2  502    0 -0.37492593797E+02  0.19889807223E+01 -0.47358557746E+03  0.47507152074E+03  0.00000000000E+00 0.  1.
<scales pt_clust_1="13000.00000" pt_clust_2="13000.00000" pt_clust_3="130.23221" pt_clust_4="37.54531"></scales>
<clustering>
<clus scale="   37.545">  2  6  1 -1</clus>
<clus scale="  130.232">  1  5  2 -1</clus>
<clus scale="  352.362">  1  3  2 -1</clus>
<clus scale="  352.362">  1  3  2 -1</clus>
</clustering>
</event>
<event>
 6   2  0.3464723E-02  0.3586110E+03  0.7816531E-02  0.1059135E+00
       21   -1    0    0  505  502  0.00000000000E+00  0.00000000000E+00  0.12742423459E+03  0.12742423459E+03  0.00000000000E+00 0. -1.
       21   -1    0    0  504  503  0.00000000000E+00  0.00000000000E+00 -0.14225149691E+04  0.14225149691E+04  0.00000000000E+00 0. -1.
  1000006    1    1    2  501    0  0.37042216497E+02  0.66034179445E+02 -0.56614313617E+03  0.66988856483E+03  0.35000000000E+03 0.  0.
 -1000006    1    1    2    0  503  0.18084636627E+02 -0.88224888892E+02 -0.65042144881E+03  0.74408248614E+03  0.35000000000E+03 0.  0.
       21    1    1    2  504  502 -0.26462353054E+02  0.57652682575E+02 -0.32888028881E+02  0.71454253764E+02  0.00000000000E+00 0. -1.
       21    1    1    2  505  501 -0.28664500070E+02 -0.35461973128E+02 -0.45638120675E+02  0.64513898976E+02  0.00000000000E+00 0. -1.
<scales pt_clust_1="13000.00000" pt_clust_2="13000.00000" pt_clust_3="60.49205" pt_clust_4="45.59830"></scales>
<clustering>
<clus scale="   45.598">  1  6  2 -1</clus>
<clus scale="   60.492">  1  5  2 -1</clus>
<clus scale="  358.611">  1  3  2 -1</clus>
<clus scale="  358.611">  1  3  2 -1</clus>
</clustering>
</event>
<event>
 5   1  0.3464723E-02  0.3912472E+03  0.7816531E-02  0.1046853E+00
       21   -1    0    0  504  502  0.00000000000E+00  0.00000000000E+00  0.72525561531E+03  0.72525561531E+03  0.00000000000E+00 0.  1.
       21   -1    0    0  501  503  0.00000000000E+00  0.00000000000E+00 -0.57764975425E+03  0.57764975425E+03  0.00000000000E+00 0. -1.
  1000006    1    1    2  501    0 -0.11412416839E+03  0.85754179790E+02 -0.22617870230E+03  0.44049393927E+03  0.35000000000E+03 0.  0.
 -1000006    1    1    2    0  502  0.16078728200E+03 -0.83670301993E+02  0.55194454442E+03  0.67823008603E+03  0.35000000000E+03 0.  0.
       21    1    1    2  504  503 -0.46663113612E+02 -0.20838777970E+01 -0.17815998106E+03  0.18418134425E+03  0.00000000000E+00 0. -1.
<scales pt_clust_1="13000.00000" pt_clust_2="13000.00000" pt_clust_3="46.70962"></scales>
<clustering>
<clus scale="   46.710">  2  5  1 -1</clus>
<clus scale="  391.247">  1  4  2 -1</clus>
<clus scale="  391.247">  1  3  2 -1</clus>
</clustering>
</event>
<event>
 4   0  0.3464723E-02  0.4204111E+03  0.7816531E-02  0.1036933E+00
       21   -1    0    0  501  502  0.00000000000E+00  0.00000000000E+00  0.97131150469E+02  0.97131150469E+02  0.00000000000E+00 0. -1.
       21   -1    0    0  502  503  0.00000000000E+00  0.00000000000E+00 -0.18285562900E+04  0.18285562900E+04  0.00000000000E+00 0. -1.
  1000006    1    1    2  501    0 -0.11964092008E+03  0.19982886316E+03 -0.79854764651E+03  0.90245435788E+03  0.35000000000E+03 0.  0.
 -1000006    1    1    2    0  503  0.11964092008E+03 -0.19982886316E+03 -0.93287749298E+03  0.10232330825E+04  0.35000000000E+03 0.  0.
<scales pt_clust_1="13000.00000" pt_clust_2="13000.00000"></scales>
<clustering>
<clus scale="  420.411">  1  3  2 -1</clus>
<clus scale="  420.411">  1  3  2 -1</clus>
</clustering>
</event>
<event>
 5   1  0.3464723E-02  0.5897746E+03  0.7816531E-02  0.9926851E-01
        2   -1    0    0  503    0  0.00000000000E+00  0.00000000000E+00  0.19095695479E+04  0.19095695479E+04  0.00000000000E+00 0. -1.
       21   -1    0    0  501  503  0.00000000000E+00  0.00000000000E+00 -0.50221145073E+03  0.50221145073E+03  0.00000000000E+00 0.  1.
  1000006    1    1    2  501    0  0.32168452878E+03 -0.37017375489E+03 -0.20926232893E+03  0.63780895821E+03  0.35000000000E+03 0.  0.
 -1000006    1    1    2    0  502 -0.30427305104E+03  0.27060728385E+03  0.88314227195E+03  0.10335621240E+04  0.35000000000E+03 0.  0.
        2    1    1    2  502    0 -0.17411477738E+02  0.99566471045E+02  0.73347815418E+03  0.74040991645E+03  0.00000000000E+00 0. -1.
<scales pt_clust_1="13000.00000" pt_clust_2="13000.00000" pt_clust_3="101.07740"></scales>
<clustering>
<clus scale="  101.077">  1  5  2 -1</clus>
<clus scale="  589.775">  1  4  2 -1</clus>
<clus scale="  589.775">  2  3  1 -1</clus>
</clustering>
</event>
<event>
 6   2  0.3464723E-02  0.3650229E+03  0.7816531E-02  0.1056613E+00
       21   -1    0    0  504  502  0.00000000000E+00  0.00000000000E+00  0.76698457390E+03  0.76698457390E+03  0.00000000000E+00 0.  1.
       21   -1    0    0  505  503  0.00000000000E+00  0.00000000000E+00 -0.27411112393E+03  0.27411112393E+03  0.00000000000E+00 0.  1.
  1000006    1    1    2  501    0 -0.11448854272E+03 -0.28302002718E+02  0.26779325839E+03  0.45620374726E+03  0.35000000000E+03 0.  0.
 -1000006    1    1    2    0  502  0.81466022072E+02  0.40866605780E+02  0.27014710550E+03  0.45142690530E+03  0.35000000000E+03 0.  0.
       21    1    1    2  504  503  0.49158315045E+02  0.15867435279E+02  0.24070080063E+02  0.56988456678E+02  0.00000000000E+00 0. -1.
       21    1    1    2  505  501 -0.16135794401E+02 -0.28432038341E+02 -0.69136993986E+02  0.76476588592E+02  0.00000000000E+00 0.  1.
<scales pt_clust_1="13000.00000" pt_clust_2="13000.00000" pt_clust_3="49.71898" pt_clust_4="32.69166"></scales>
<clustering>
<clus scale="   32.692">  2  6  1 -1</clus>
<clus scale="   49.719">  2  5  1 -1</clus>
<clus scale="  365.023">  2  3  1 -1</clus>
<clus scale="  365.023">  1  3  2 -1</clus>
</clustering>
</event>
<event>
 6   2  0.3464723E-02  0.5133959E+03  0.7816531E-02  0.1010340E+00
       21   -1    0    0  505  502  0.00000000000E+00  0.00000000000E+00  0.17018085252E+04  0.17018085252E+04  0.00000000000E+00 0.  1.
       21   -1    0    0  504  503  0.00000000000E+00  0.00000000000E+00 -0.32251241612E+03  0.32251241612E+03  0.00000000000E+00 0. -1.
  1000006    1    1    2  501    0  0.12615365611E+03  0.31975912202E+03  0.72872358864E+03  0.87846383517E+03  0.35000000000E+03 0.  0.
 -1000006    1    1    2    0  503 -0.30694152118E+02 -0.42775297043E+03  0.15230782339E+03  0.57411880979E+03  0.35000000000E+03 0.  0.
       21    1    1    2  504  502 -0.88268254921E+02  0.73744320692E+02  0.55708281545E+02  0.12780032196E+03  0.00000000000E+00 0.  1.
       21    1    1    2  505  501 -0.71912490712E+01  0.34249527719E+02  0.44255641546E+03  0.44393797436E+03  0.00000000000E+00 0.  1.
<scales pt_clust_1="13000.00000" pt_clust_2="13000.00000" pt_clust_3="117.03351" pt_clust_4="34.99635"></scales>
<clustering>
<clus scale="   34.996">  1  6  2 -1</clus>
<clus scale="  117.034">  2  5  1 -1</clus>
<clus scale="  513.396">  1  3  2 -1</clus>
<clus scale="  513.396">  1  3  2 -1</clus>
</clustering>
</event>
<event>
 5   1  0.3464723E-02  0.3521483E+03  0.7816531E-02  0.1061737E+00
        2   -1    0    0  501    0  0.00000000000E+00  0.00000000000E+00  0.23959380452E+04  0.23959380452E+04  0.00000000000E+00 0.  1.
       21   -1    0    0  502  503  0.00000000000E+00  0.00000000000E+00 -0.70152365466E+03  0.70152365466E+03  0.00000000000E+00 0.  1.
  1000006    1    1    2  501    0  0.51717522635E+02  0.21951823147E+02 -0.14882093678E+03  0.38445319080E+03  0.35000000000E+03 0.  0.
 -1000006    1    1    2    0  503 -0.99018441448E+00 -0.40039145885E+02 -0.36316125437E+03  0.50595475128E+03  0.35000000000E+03 0.  0.
        2    1    1    2  502    0 -0.50727338220E+02  0.18087322738E+02  0.22063965817E+04  0.22070537578E+04  0.00000000000E+00 0.  1.
<scales pt_clust_1="13000.00000" pt_clust_2="13000.00000" pt_clust_3="53.85549"></scales>
<clustering>
<clus scale="   53.855">  1  5  2 -1</clus>
<clus scale="  352.148">  1  3  2 -1</clus>
<clus scale="  352.148">  2  3  1 -1</clus>
</clustering>
</event>
<event>
 5   1  0.3464723E-02  0.3659108E+03  0.7816531E-02  0.1056268E+00
        2   -1    0    0  503    0  0.00000000000E+00  0.00000000000E+00  0.72076405714E+03  0.72076405714E+03  0.00000000000E+00 0.  1.
       21   -1    0    0  501  503  0.00000000000E+00  0.00000000000E+00 -0.40641114787E+03  0.40641114787E+03  0.00000000000E+00 0.  1.
  1000006    1    1    2  501    0 -0.11954558702E+03  0.16038744023E+02 -0.17800471673E+03  0.41077252569E+03  0.35000000000E+03 0.  0.
 -1000006    1    1    2    0  502  0.70194599589E+02 -0.18246883046E+02  0.18006966542E+03  0.40023157666E+03  0.35000000000E+03 0.  0.
        2    1    1    2  502    0  0.49350987427E+02  0.22081390239E+01  0.31228796057E+03  0.31617110266E+03  0.00000000000E+00 0.  1.
<scales pt_clust_1="13000.00000" pt_clust_2="13000.00000" pt_clust_3="49.40036"></scales>
<clustering>
<clus scale="   49.400">  1  5  2 -1</clus>
<clus scale="  365.911">  2  3  1 -1</clus>
<clus scale="  365.911">  2  3  1 -1</clus>
</clustering>
</event>
<event>
 6   2  0.3464723E-02  0.4068779E+03  0.7816531E-02  0.1041424E+00
        2   -1    0    0  501    0  0.00000000000E+00  0.00000000000E+00  0.12277634316E+04  0.12277634316E+04  0.00000000000E+00 0.  1.
       21   -1    0    0  504  503  0.00000000000E+00  0.00000000000E+00 -0.72293680412E+03  0.72293680412E+03  0.00000000000E+00 0.  1.
  1000006    1    1    2  501    0  0.16295040003E+03 -0.21462773234E+03 -0.17321174850E+03  0.47446834054E+03  0.35000000000E+03 0.  0.
 -1000006    1    1    2    0  503 -0.15895620191E+03  0.76411108615E+02 -0.28586441058E+03  0.48510224992E+03  0.35000000000E+03 0.  0.
       21    1    1    2  504  502 -0.71540966949E+01  0.10693679594E+03  0.20280609203E+03  0.22938389305E+03  0.00000000000E+00 0.  1.
        2    1    1    2  502    0  0.31598985752E+01  0.31279827780E+02  0.76109669449E+03  0.76174575217E+03  0.00000000000E+00 0.  1.
<scales pt_clust_1="13000.00000" pt_clust_2="13000.00000" pt_clust_3="121.56456" pt_clust_4="31.43903"></scales>
<clustering>
<clus scale="   31.439">  1  6  2 -1</clus>
<clus scale="  121.565">  1  5  2 -1</clus>
<clus scale="  406.878">  1  3  2 -1</clus>
<clus scale="  406.878">  2  3  1 -1</clus>
</clustering>
</event>
<event>
 4   0  0.3464723E-02  0.3540958E+03  0.7816531E-02  0.1060946E+00
       21   -1    0    0  503  502  0.00000000000E+00  0.00000000000E+00  0.18321679518E+03  0.18321679518E+03  0.00000000000E+00 0.  1.
       21   -1    0    0  501  503  0.00000000000E+00  0.00000000000E+00 -0.10051600122E+04  0.10051600122E+04  0.00000000000E+00 0.  1.
  1000006    1    1    2  501    0  0.13030148586E+02  0.52096466593E+02 -0.74665719674E+03  0.82636601821E+03  0.35000000000E+03 0.  0.
 -1000006    1    1    2    0  502 -0.13030148586E+02 -0.52096466593E+02 -0.75286020226E+02  0.36201078913E+03  0.35000000000E+03 0.  0.
<scales pt_clust_1="13000.00000" pt_clust_2="13000.00000"></scales>
<clustering>
<clus scale="  354.096">  2  3  1 -1</clus>
<clus scale="  354.096">  1  3  2 -1</clus>
</clustering>
</event>
<event>
 6   2  0.3464723E-02  0.3565834E+03  0.7816531E-02  0.1059945E+00
       21   -1    0    0  505  502  0.00000000000E+00  0.00000000000E+00  0.59806897357E+03  0.59806897357E+03  0.00000000000E+00 0. -1.
       21   -1    0    0  504  503  0.00000000000E+00  0.00000000000E+00 -0.12800910201E+04  0.12800910201E+04  0.00000000000E+00 0. -1.
  1000006    1    1    2  501    0  0.34066007613E+02  0.47069203122E+02 -0.26575921618E+03  0.44328767605E+03  0.35000000000E+03 0.  0.
 -1000006    1    1    2    0  502  0.71035628571E+02 -0.39972448471E+02  0.41896435538E+03  0.55197372061E+03  0.35000000000E+03 0.  0.
       21    1    1    2  504  501  0.79849645590E+02 -0.51584220756E+02 -0.31222019073E+03  0.32637148349E+03  0.00000000000E+00 0. -1.
       21    1    1    2  505  503 -0.18495128177E+03  0.44487466105E+02 -0.52300699500E+03  0.55652711352E+03  0.00000000000E+00 0. -1.
<scales pt_clust_1="13000.00000" pt_clust_2="13000.00000" pt_clust_3="95.06260" pt_clust_4="140.94812"></scales>
<clustering>
<clus scale="   95.063">  2  5  1 -1</clus>
<clus scale="  140.948">  2  6  1 -1</clus>
<clus scale="  356.583">  2  3  1 -1</clus>
<clus scale="  356.583">  1  3  2 -1</clus>
</clustering>
</event>
<event>
 4   0  0.3464723E-02  0.4333259E+03  0.7816531E-02  0.1032814E+00
       21   -1    0    0  503  502  0.00000000000E+00  0.00000000000E+00  0.41935766260E+03  0.41935766260E+03  0.00000000000E+00 0. -1.
       21   -1    0    0  501  503  0.00000000000E+00  0.00000000000E+00 -0.46897065998E+03  0.46897065998E+03  0.00000000000E+00 0.  1.
  1000006    1    1    2  501    0 -0.25231997567E+03  0.40074404540E+02 -0.11926783613E+03  0.44943981216E+03  0.35000000000E+03 0.  0.
 -1000006    1    1    2    0  502  0.25231997567E+03 -0.40074404540E+02  0.69654838752E+02  0.43888851042E+03  0.35000000000E+03 0.  0.
<scales pt_clust_1="13000.00000" pt_clust_2="13000.00000"></scales>
<clustering>
<clus scale="  433.326">  2  3  1 -1</clus>
<clus scale="  433.326">  1  3  2 -1</clus>
</clustering>
</event>
<event>
 5   1  0.3464723E-02  0.4104439E+03  0.7816531E-02  0.1040222E+00
       21   -1    0    0  501  502  0.00000000000E+00  0.00000000000E+00  0.66186136813E+03  0.66186136813E+03  0.00000000000E+00 0.  1.
       21   -1    0    0  504  503  0.00000000000E+00  0.00000000000E+00 -0.29859950569E+03  0.29859950569E+03  0.00000000000E+00 0.  1.
  1000006    1    1    2  501    0 -0.18217292837E+03  0.14875377586E+03  0.15008157445E+03  0.44759260567E+03  0.35000000000E+03 0.  0.
 -1000006    1    1    2    0  503  0.15482874094E+03 -0.11884177579E+03  0.13163810039E+03  0.42181026086E+03  0.35000000000E+03 0.  0.
       21    1    1    2  504  502  0.27344187424E+02 -0.29912000070E+02  0.81542187588E+02  0.91058007285E+02  0.00000000000E+00 0.  1.
<scales pt_clust_1="13000.00000" pt_clust_2="13000.00000" pt_clust_3="40.52693"></scales>
<clustering>
<clus scale="   40.527">  1  5  2 -1</clus>
<clus scale="  410.444">  2  4  1 -1</clus>
<clus scale="  410.444">  1  3  2 -1</clus>
</clustering>
</event>
<event>
 5   1  0.3464723E-02  0.3780551E+03  0.7816531E-02  0.1051655E+00
       21   -1    0    0  504  502  0.00000000000E+00  0.00000000000E+00  0.11021179522E+03  0.11021179522E+03  0.00000000000E+00 0. -1.
       21   -1    0    0  501  503  0.00000000000E+00  0.00000000000E+00 -0.18631742773E+04  0.18631742773E+04  0.00000000000E+00 0. -1.
  1000006    1    1    2  501    0 -0.75300772826E+02 -0.82446482728E+02 -0.96583787177E+03  0.10333491295E+04  0.35000000000E+03 0.  0.
 -1000006    1    1    2    0  502  0.60346426113E+02  0.14977068312E+03 -0.43492076143E+03  0.58114457529E+03  0.35000000000E+03 0.  0.
       21    1    1    2  504  503  0.14954346712E+02 -0.67324200396E+02 -0.35220384891E+03  0.35889236775E+03  0.00000000000E+00 0. -1.
<scales pt_clust_1="13000.00000" pt_clust_2="13000.00000" pt_clust_3="68.96507"></scales>
<clustering>
<clus scale="   68.965">  2  5  1 -1</clus>
<clus scale="  378.055">  2  3  1 -1</clus>
<clus scale="  378.055">  1  3  2 -1</clus>
</clustering>
</event>
<event>
 6   2  0.3464723E-02  0.4447694E+03  0.7816531E-02  0.1029293E+00
        2   -1    0    0  504    0  0.00000000000E+00  0.00000000000E+00  0.24371127012E+04  0.24371127012E+04  0.00000000000E+00 0.  1.
       21   -1    0    0  502  503  0.00000000000E+00  0.00000000000E+00 -0.16308124488E+03  0.16308124488E+03  0.00000000000E+00 0.  1.
  1000006    1    1    2  501    0 -0.21387456927E+03 -0.31059507463E+02  0.69133423875E+03  0.80445637175E+03  0.35000000000E+03 0.  0.
 -1000006    1    1    2    0  503  0.31115341257E+03  0.63060771997E+02  0.44815713258E+03  0.65125872171E+03  0.35000000000E+03 0.  0.
       21    1    1    2  504  501 -0.72742623783E+02  0.33732072699E+02  0.57911194878E+03  0.58463663182E+03  0.00000000000E+00 0.  1.
        2    1    1    2  502    0 -0.24536219515E+02 -0.65733337233E+02  0.55542813621E+03  0.55984222080E+03  0.00000000000E+00 0.  1.
<scales pt_clust_1="13000.00000" pt_clust_2="13000.00000" pt_clust_3="81.44568" pt_clust_4="70.16336"></scales>
<clustering>
<clus scale="   70.163">  1  6  2 -1</clus>
<clus scale="   81.446">  1  5  2 -1</clus>
<clus scale="  444.769">  1  3  2 -1</clus>
<clus scale="  444.769">  2  3  1 -1</clus>
</clustering>
</event>
<event>
 6   2  0.3464723E-02  0.3673802E+03  0.7816531E-02  0.1055699E+00
       21   -1    0    0  504  502  0.00000000000E+00  0.00000000000E+00  0.17614498058E+04  0.17614498058E+04  0.00000000000E+00 0.  1.
       21   -1    0    0  505  503  0.00000000000E+00  0.00000000000E+00 -0.11354538814E+04  0.11354538814E+04  0.00000000000E+00 0. -1.
  1000006    1    1    2  501    0 -0.79612880071E+02  0.40203376603E+03  0.25831954340E+03  0.59766072834E+03  0.35000000000E+03 0.  0.
 -1000006    1    1    2    0  502  0.46229452642E+02  0.25603859965E+01  0.98336887154E+03  0.10448244137E+04  0.35000000000E+03 0.  0.
       21    1    1    2  504  503  0.86391689972E+00 -0.60190722259E+02  0.28410533130E+03  0.29041265239E+03  0.00000000000E+00 0. -1.
       21    1    1    2  505  501  0.32519510530E+02 -0.34440342976E+03 -0.89979782185E+03  0.96400589273E+03  0.00000000000E+00 0. -1.
<scales pt_clust_1="13000.00000" pt_clust_2="13000.00000" pt_clust_3="60.19692" pt_clust_4="347.24209"></scales>
<clustering>
<clus scale="   60.197">  1  5  2 -1</clus>
<clus scale="  347.242">  2  6  1 -1</clus>
<clus scale="  367.380">  1  4  2 -1</clus>
<clus scale="  367.380">  1  3  2 -1</clus>
</clustering>
</event>
<event>
 5   1  0.3464723E-02  0.3757123E+03  0.7816531E-02  0.1052530E+00
       21   -1    0    0  504  502  0.00000000000E+00  0.00000000000E+00  0.46323057987E+03  0.46323057987E+03  0.00000000000E+00 0. -1.
       21   -1    0    0  501  503  0.00000000000E+00  0.00000000000E+00 -0.60944722609E+03  0.60944722609E+03  0.00000000000E+00 0. -1.
  1000006    1    1    2  501    0 -0.11044455455E+03 -0.10528069947E+03  0.75024639460E+01  0.38188782682E+03  0.35000000000E+03 0.  0.
 -1000006    1    1    2    0  502  0.10335456115E+03  0.72426135678E+02  0.13823402654E+03  0.39690849894E+03  0.35000000000E+03 0.  0.
       21    1    1    2  504  503  0.70899933971E+01  0.32854563791E+02 -0.29195313671E+03  0.29388148020E+03  0.00000000000E+00 0. -1.
<scales pt_clust_1="13000.00000" pt_clust_2="13000.00000" pt_clust_3="33.61087"></scales>
<clustering>
<clus scale="   33.611">  2  5  1 -1</clus>
<clus scale="  375.712">  2  3  1 -1</clus>
<clus scale="  375.712">  1  3  2 -1</clus>
</clustering>
</event>
<event>
 6   2  0.3464723E-02  0.3501744E+03  0.7816531E-02  0.1062543E+00
       21   -1    0    0  501  502  0.00000000000E+00  0.00000000000E+00  0.35922316482E+03  0.35922316482E+03  0.00000000000E+00 0.  1.
       21   -1    0    0  504  503  0.00000000000E+00  0.00000000000E+00 -0.54519135214E+03  0.54519135214E+03  0.00000000000E+00 0.  1.
  1000006    1    1    2  501    0 -0.41808586308E+02 -0.14515578919E+02 -0.53028640237E+02  0.35675018795E+03  0.35000000000E+03 0.  0.
 -1000006    1    1    2    0  503 -0.41018578872E+02  0.22685388922E+01 -0.21782193027E+03  0.41428741640E+03  0.35000000000E+03 0.  0.
       21    1    1    2  504  505  0.50885322427E+02  0.12484764327E+02  0.11926768941E+02  0.53734841548E+02  0.00000000000E+00 0.  1.
       21    1    1    2  505  502  0.31941842753E+02 -0.23772430029E+00  0.72955614250E+02  0.79642071055E+02  0.00000000000E+00 0.  1.
<scales pt_clust_1="13000.00000" pt_clust_2="13000.00000" pt_clust_3="55.99513" pt_clust_4="31.94273"></scales>
<clustering>
<clus scale="   31.943">  1  6  2 -1</clus>
<clus scale="   55.995">  1  5  2 -1</clus>
<clus scale="  350.174">  1  3  2 -1</clus>
<clus scale="  350.174">  1  3  2 -1</clus>
</clustering>
</event>
<event>
 6   2  0.3464723E-02  0.4474769E+03  0.7816531E-02  0.1028477E+00
       21   -1    0    0  501  502  0.00000000000E+00  0.00000000000E+00  0.34604926746E+03  0.34604926746E+03  0.00000000000E+00 0. -1.
       21   -1    0    0  505  503  0.00000000000E+00  0.00000000000E+00 -0.11198304791E+04  0.11198304791E+04  0.00000000000E+00 0.  1.
  1000006    1    1    2  501    0 -0.30218115770E+02 -0.29563625227E+03  0.61730258025E+02  0.46327589289E+03  0.35000000000E+03 0.  0.
 -1000006    1    1    2    0  503  0.26977529461E+02  0.22668499527E+03 -0.47362818320E+03  0.63161501732E+03  0.35000000000E+03 0.  0.
       21    1    1    2  504  502 -0.66505723437E+01  0.37185995634E+02 -0.98206161205E+02  0.10522109333E+03  0.00000000000E+00 0.  1.
       21    1    1    2  505  504  0.98911586525E+01  0.31765261369E+02 -0.26367712528E+03  0.26576774305E+03  0.00000000000E+00 0.  1.
<scales pt_clust_1="13000.00000" pt_clust_2="13000.00000" pt_clust_3="41.32855" pt_clust_4="33.26961"></scales>
<clustering>
<clus scale="   33.270">  2  6  1 -1</clus>
<clus scale="   41.329">  2  5  1 -1</clus>
<clus scale="  447.477">  1  3  2 -1</clus>
<clus scale="  447.477">  1  3  2 -1</clus>
</clustering>
</event>
<event>
 6   2  0.3464723E-02  0.4806411E+03  0.7816531E-02  0.1018959E+00
       21   -1    0    0  505  502  0.00000000000E+00  0.00000000000E+00  0.27514625553E+04  0.27514625553E+04  0.00000000000E+00 0.  1.
       21   -1    0    0  501  503  0.00000000000E+00  0.00000000000E+00 -0.28378802069E+03  0.28378802069E+03  0.00000000000E+00 0.  1.
  1000006    1    1    2  501    0  0.31083704130E+03 -0.18901895765E+03  0.39568853308E+02  0.50637291273E+03  0.35000000000E+03 0.  0.
 -1000006    1    1    2    0  502 -0.20758364682E+03 -0.64371937363E+02  0.13914323989E+04  0.14511439754E+04  0.35000000000E+03 0.  0.
       21    1    1    2  504  503 -0.59670536409E+02  0.24234482442E+03  0.88856619451E+03  0.92295258213E+03  0.00000000000E+00 0.  1.
       21    1    1    2  505  504 -0.43582858068E+02  0.11046070589E+02  0.14810708790E+03  0.15478110569E+03  0.00000000000E+00 0. -1.
<scales pt_clust_1="13000.00000" pt_clust_2="13000.00000" pt_clust_3="257.32075" pt_clust_4="44.96089"></scales>
<clustering>
<clus scale="   44.961">  1  6  2 -1</clus>
<clus scale="  257.321">  1  5  2 -1</clus>
<clus scale="  480.641">  1  4  2 -1</clus>
<clus scale="  480.641">  1  3  2 -1</clus>
</clustering>
</event>
<event>
 4   0  0.3464723E-02  0.3939987E+03  0.7816531E-02  0.1045878E+00
       21   -1    0    0  503  502  0.00000000000E+00  0.00000000000E+00  0.31041183238E+03  0.31041183238E+03  0.00000000000E+00 0. -1.
       21   -1    0    0  501  503  0.00000000000E+00  0.00000000000E+00 -0.50014161964E+03  0.50014161964E+03  0.00000000000E+00 0. -1.
  1000006    1    1    2  501    0  0.11487192393E+03  0.13978357156E+03 -0.98831357196E+02  0.40620517347E+03  0.35000000000E+03 0.  0.
 -1000006    1    1    2    0  502 -0.11487192393E+03 -0.13978357156E+03 -0.90898430062E+02  0.40434827856E+03  0.35000000000E+03 0.  0.
<scales pt_clust_1="13000.00000" pt_clust_2="13000.00000"></scales>
<clustering>
<clus scale="  393.999">  2  3  1 -1</clus>
<clus scale="  393.999">  1  3  2 -1</clus>
</clustering>
</event>
<event>
 4   0  0.3464723E-02  0.3644764E+03  0.7816531E-02  0.1056825E+00
       21   -1    0    0  503  502  0.00000000000E+00  0.00000000000E+00  0.66726932617E+03  0.66726932617E+03  0.00000000000E+00 0.  1.
       21   -1    0    0  501  503  0.00000000000E+00  0.00000000000E+00 -0.19923792575E+03  0.19923792575E+03  0.00000000000E+00 0.  1.
  1000006    1    1    2  501    0 -0.77752415806E+02 -0.65556191441E+02  0.22199715066E+03  0.42676197968E+03  0.35000000000E+03 0.  0.
 -1000006    1    1    2    0  502  0.77752415806E+02  0.65556191441E+02  0.24603424977E+03  0.43974527224E+03  0.35000000000E+03 0.  0.
<scales pt_clust_1="13000.00000" pt_clust_2="13000.00000"></scales>
<clustering>
<clus scale="  364.476">  2  3  1 -1</clus>
<clus scale="  364.476">  1  3  2 -1</clus>
</clustering>
</event>
<event>
 5   1  0.3464723E-02  0.3759569E+03  0.7816531E-02  0.1052438E+00
       21   -1    0    0  501  502  0.00000000000E+00  0.00000000000E+00  0.19584437635E+04  0.19584437635E+04  0.00000000000E+00 0.  1.
       21   -1    0    0  504  503  0.00000000000E+00  0.00000000000E+00 -0.41647858159E+03  0.41647858159E+03  0.00000000000E+00 0.  1.
  1000006    1    1    2  501    0  0.20321302263E+03  0.15678107036E+02  0.14979170595E+04  0.15517077214E+04  0.35000000000E+03 0.  0.
 -1000006    1    1    2    0  503 -0.13194579454E+03 -0.19168147872E+02 -0.29498601035E+03  0.47675345504E+03  0.35000000000E+03 0.  0.
       21    1    1    2  504  502 -0.71267228091E+02  0.34900408364E+01  0.33903413274E+03  0.34646116860E+03  0.00000000000E+00 0. -1.
<scales pt_clust_1="13000.00000" pt_clust_2="13000.00000" pt_clust_3="71.35263"></scales>
<clustering>
<clus scale="   71.353">  1  5  2 -1</clus>
<clus scale="  375.957">  1  3  2 -1</clus>
<clus scale="  375.957">  1  3  2 -1</clus>
</clustering>
</event>
<event>
 6   2  0.3464723E-02  0.4560023E+03  0.7816531E-02  0.1025947E+00
       21   -1    0    0  504  502  0.00000000000E+00  0.00000000000E+00  0.47271172393E+03  0.47271172393E+03  0.00000000000E+00 0.  1.
       21   -1    0    0  501  503  0.00000000000E+00  0.00000000000E+00 -0.60274123023E+03  0.60274123023E+03  0.00000000000E+00 0.  1.
  1000006    1    1    2  501    0 -0.11691400697E+02 -0.30204589496E+03 -0.15879902677E+03  0.48896374346E+03  0.35000000000E+03 0.  0.
 -1000006    1    1    2    0  505  0.34687560966E+02  0.27807703522E+03  0.34685612679E+02  0.44970340907E+03  0.35000000000E+03 0.  0.
       21    1    1    2  504  503  0.54333884553E+02  0.36014232592E+00 -0.12201599770E+02  0.55688237089E+02  0.00000000000E+00 0. -1.
       21    1    1    2  505  502 -0.77330044822E+02  0.23608717414E+02  0.62855075613E+01  0.81097564547E+02  0.00000000000E+00 0.  1.
<scales pt_clust_1="13000.00000" pt_clust_2="13000.00000" pt_clust_3="54.33508" pt_clust_4="77.45040"></scales>
<clustering>
<clus scale="   54.335">  2  5  1 -1</clus>
<clus scale="   77.450">  1  6  2 -1</clus>
<clus scale="  456.002">  2  3  1 -1</clus>
<clus scale="  456.002">  1  3  2 -1</clus>
</clustering>
</event>
<event>
 6   2  0.3464723E-02  0.9439002E+03  0.7816531E-02  0.9372309E-01
       21   -1    0    0  504  502  0.00000000000E+00  0.00000000000E+00  0.11189313732E+04  0.11189313732E+04  0.00000000000E+00 0. -1.
       21   -1    0    0  505  503  0.00000000000E+00  0.00000000000E+00 -0.87654603287E+03  0.87654603287E+03  0.00000000000E+00 0.  1.
  1000006    1    1    2  501    0  0.10297215088E+03 -0.85909944206E+03  0.92577908632E+02  0.93793698315E+03  0.35000000000E+03 0.  0.
 -1000006    1    1    2    0  502 -0.46507873491E+02  0.88683377580E+03  0.16220874290E+03  0.96821939893E+03  0.35000000000E+03 0.  0.
       21    1    1    2  504  503 -0.35042075964E+02  0.68875467155E+01  0.16552410028E+02  0.39362007893E+02  0.00000000000E+00 0. -1.
       21    1    1    2  505  501 -0.21422201425E+02 -0.34621880462E+02 -0.28953721205E+02  0.49959016125E+02  0.00000000000E+00 0.  1.
<scales pt_clust_1="13000.00000" pt_clust_2="13000.00000" pt_clust_3="35.71254" pt_clust_4="40.83584"></scales>
<clustering>
<clus scale="   35.713">  1  5  2 -1</clus>
<clus scale="   40.836">  2  6  1 -1</clus>
<clus scale="  943.900">  2  3  1 -1</clus>
<clus scale="  943.900">  1  3  2 -1</clus>
</clustering>
</event>
<event>
 6   2  0.3464723E-02  0.8200590E+03  0.7816531E-02  0.9531428E-01
        1   -1    0    0  503    0  0.00000000000E+00  0.00000000000E+00  0.74803240374E+03  0.74803240374E+03  0.00000000000E+00 0. -1.
       -1   -1    0    0    0  501  0.00000000000E+00  0.00000000000E+00 -0.20858738852E+04  0.20858738852E+04  0.00000000000E+00 0.  1.
  1000006    1    1    2  502    0 -0.54578899333E+03 -0.76700572687E+02 -0.45400026750E+03  0.79522628602E+03  0.35000000000E+03 0.  0.
 -1000006    1    1    2    0  501  0.93724321825E+03  0.21170753453E+03 -0.11439247218E+04  0.15343756709E+04  0.35000000000E+03 0.  0.
       21    1    1    2  503  504 -0.18089670524E+03 -0.69918335970E+02  0.19377975671E+03  0.27415832248E+03  0.00000000000E+00 0.  1.
       21    1    1    2  504  502 -0.21055751968E+03 -0.65088625876E+02  0.66303751084E+02  0.23014600957E+03  0.00000000000E+00 0.  1.
<scales pt_clust_1="13000.00000" pt_clust_2="13000.00000" pt_clust_3="115.71512" pt_clust_4="432.06415"></scales>
<clustering>
<clus scale="  115.715">  5  6 -1 -1</clus>
<clus scale="  432.064">  1  5  2 -1</clus>
<clus scale=" 1527.978">  3  4 -1 -1</clus>
<clus scale="  820.059">  1  3  2 -1</clus>
</clustering>
</event>
<event>
 5   1  0.3464723E-02  0.4033164E+03  0.7816531E-02  0.1042637E+00
        2   -1    0    0  503    0  0.00000000000E+00  0.00000000000E+00  0.15687340498E+04  0.15687340498E+04  0.00000000000E+00 0.  1.
       21   -1    0    0  501  503  0.00000000000E+00  0.00000000000E+00 -0.13353728291E+03  0.13353728291E+03  0.00000000000E+00 0.  1.
  1000006    1    1    2  501    0  0.34816627248E+02  0.21157391104E+03  0.42471463249E+03  0.59064222370E+03  0.35000000000E+03 0.  0.
 -1000006    1    1    2    0  502  0.10246192664E+02 -0.18044752080E+03  0.76904559483E+03  0.86405868964E+03  0.35000000000E+03 0.  0.
        2    1    1    2  502    0 -0.45062819913E+02 -0.31126390249E+02  0.24143653962E+03  0.24757041942E+03  0.00000000000E+00 0.  1.
<scales pt_clust_1="13000.00000" pt_clust_2="13000.00000" pt_clust_3="54.76778"></scales>
<clustering>
<clus scale="   54.768">  1  5  2 -1</clus>
<clus scale="  403.316">  1  4  2 -1</clus>
<clus scale="  403.316">  2  3  1 -1</clus>
</clustering>
</event>
<event>
 5   1  0.3464723E-02  0.5418116E+03  0.7816531E-02  0.1003407E+00
       -2   -1    0    0    0  501  0.00000000000E+00  0.00000000000E+00  0.20024407934E+03  0.20024407934E+03  0.00000000000E+00 0.  1.
        2   -1    0    0  503    0  0.00000000000E+00  0.00000000000E+00 -0.23943426849E+04  0.23943426849E+04  0.00000000000E+00 0. -1.
  1000006    1    1    2  502    0  0.27119784203E+03 -0.35114488339E+03 -0.48591570500E+03  0.74529529116E+03  0.35000000000E+03 0.  0.
 -1000006    1    1    2    0  501 -0.23918377173E+03  0.27971746224E+03 -0.86951781513E+03  0.10069816116E+04  0.35000000000E+03 0.  0.
       21    1    1    2  503  502 -0.32014070300E+02  0.71427421146E+02 -0.83866508546E+03  0.84230986148E+03  0.00000000000E+00 0.  1.
<scales pt_clust_1="13000.00000" pt_clust_2="13000.00000" pt_clust_3="78.27373"></scales>
<clustering>
<clus scale="   78.274">  2  5  1 -1</clus>
<clus scale="  927.172">  3  4 -1 -1</clus>
<clus scale="  541.812">  2  3  1 -1</clus>
</clustering>
</event>
<event>
 5   1  0.3464723E-02  0.4339020E+03  0.7816531E-02  0.1032634E+00
        2   -1    0    0  503    0  0.00000000000E+00  0.00000000000E+00  0.18523018822E+04  0.18523018822E+04  0.00000000000E+00 0. -1.
       21   -1    0    0  501  503  0.00000000000E+00  0.00000000000E+00 -0.18153968779E+03  0.18153968779E+03  0.00000000000E+00 0. -1.
  1000006    1    1    2  501    0  0.21591110848E+03 -0.51857709585E+02  0.26993077159E+03  0.49464072847E+03  0.35000000000E+03 0.  0.
 -1000006    1    1    2    0  502 -0.33752380396E+03  0.72038092153E+02  0.92301622859E+03  0.10457393381E+04  0.35000000000E+03 0.  0.
        2    1    1    2  502    0  0.12161269547E+03 -0.20180382568E+02  0.47781519418E+03  0.49346150340E+03  0.00000000000E+00 0. -1.
<scales pt_clust_1="13000.00000" pt_clust_2="13000.00000" pt_clust_3="123.27569"></scales>
<clustering>
<clus scale="  123.276">  1  5  2 -1</clus>
<clus scale="  433.902">  2  3  1 -1</clus>
<clus scale="  433.902">  2  3  1 -1</clus>
</clustering>
</event>
<event>
 6   2  0.3464723E-02  0.3519800E+03  0.7816531E-02  0.1061805E+00
       21   -1    0    0  502  503  0.00000000000E+00  0.00000000000E+00  0.10663359868E+04  0.10663359868E+04  0.00000000000E+00 0.  1.
        2   -1    0    0  504    0  0.00000000000E+00  0.00000000000E+00 -0.12281608442E+04  0.12281608442E+04  0.00000000000E+00 0.  1.
  1000006    1    1    2  501    0 -0.25855711728E+02  0.81682894544E+01  0.19512162370E+03  0.40163128217E+03  0.35000000000E+03 0.  0.
 -1000006    1    1    2    0  503 -0.62445981615E+02  0.75808656123E+01  0.72136721881E+03  0.80425595087E+03  0.35000000000E+03 0.  0.
       21    1    1    2  504  501  0.29346260307E+02 -0.34988964170E+02 -0.87155776941E+03  0.87275333057E+03  0.00000000000E+00 0.  1.
        2    1    1    2  502    0  0.58955433037E+02  0.19239809103E+02 -0.20675593049E+03  0.21585626730E+03  0.00000000000E+00 0.  1.
<scales pt_clust_1="13000.00000" pt_clust_2="13000.00000" pt_clust_3="45.66652" pt_clust_4="76.38912"></scales>
<clustering>
<clus scale="   45.667">  2  5  1 -1</clus>
<clus scale="   76.389">  2  6  1 -1</clus>
<clus scale="  351.980">  2  3  1 -1</clus>
<clus scale="  351.980">  1  3  2 -1</clus>
</clustering>
</event>
<event>
 6   2  0.3464723E-02  0.3600794E+03  0.7816531E-02  0.1058552E+00
        2   -1    0    0  501    0  0.00000000000E+00  0.00000000000E+00  0.12004569153E+04  0.12004569153E+04  0.00000000000E+00 0. -1.
       21   -1    0    0  504  503  0.00000000000E+00  0.00000000000E+00 -0.15792480043E+04  0.15792480043E+04  0.00000000000E+00 0. -1.
  1000006    1    1    2  501    0 -0.20364947627E+03  0.94594632479E+02 -0.12166001390E+03  0.43326944580E+03  0.35000000000E+03 0.  0.
 -1000006    1    1    2    0  503 -0.28465593788E+02 -0.82866336434E+02 -0.12598371327E+04  0.13104833920E+04  0.35000000000E+03 0.  0.
       21    1    1    2  504  502  0.15460731162E+03 -0.59047433562E+02  0.55597965675E+03  0.58008913017E+03  0.00000000000E+00 0. -1.
        2    1    1    2  502    0  0.77507758432E+02  0.47319137517E+02  0.44672640091E+03  0.45586295162E+03  0.00000000000E+00 0. -1.
<scales pt_clust_1="13000.00000" pt_clust_2="13000.00000" pt_clust_3="86.89921" pt_clust_4="260.34070"></scales>
<clustering>
<clus scale="   86.899">  5  6 -1 -1</clus>
<clus scale="  260.341">  1  5  2 -1</clus>
<clus scale="  360.079">  1  3  2 -1</clus>
<clus scale="  360.079">  2  3  1 -1</clus>
</clustering>
</event>
<event>
 4   0  0.3464723E-02  0.3716394E+03  0.7816531E-02  0.1054068E+00
       21   -1    0    0  503  502  0.00000000000E+00  0.00000000000E+00  0.33155399098E+03  0.33155399098E+03  0.00000000000E+00 0.  1.
       21   -1    0    0  501  503  0.00000000000E+00  0.00000000000E+00 -0.41726321136E+03  0.41726321136E+03  0.00000000000E+00 0.  1.
  1000006    1    1    2  501    0 -0.72039608047E+02 -0.10210851513E+03 -0.58101730260E+02  0.37615377846E+03  0.35000000000E+03 0.  0.
 -1000006    1    1    2    0  502  0.72039608047E+02  0.10210851513E+03 -0.27607490119E+02  0.37266342388E+03  0.35000000000E+03 0.  0.
<scales pt_clust_1="13000.00000" pt_clust_2="13000.00000"></scales>
<clustering>
<clus scale="  371.639">  2  3  1 -1</clus>
<clus scale="  371.639">  1  3  2 -1</clus>
</clustering>
</event>
<event>
 4   0  0.3464723E-02  0.5502678E+03  0.7816531E-02  0.1001432E+00
       21   -1    0    0  503  502  0.00000000000E+00  0.00000000000E+00  0.25938608404E+03  0.25938608404E+03  0.00000000000E+00 0.  1.
       21   -1    0    0  501  503  0.00000000000E+00  0.00000000000E+00 -0.11673726451E+04  0.11673726451E+04  0.00000000000E+00 0. -1.
  1000006    1    1    2  501    0 -0.42407056818E+02 -0.42248824487E+03 -0.45704563175E+03  0.71532187511E+03  0.35000000000E+03 0.  0.
 -1000006    1    1    2    0  502  0.42407056818E+02  0.42248824487E+03 -0.45094092928E+03  0.71143685399E+03  0.35000000000E+03 0.  0.
<scales pt_clust_1="13000.00000" pt_clust_2="13000.00000"></scales>
<clustering>
<clus scale="  550.268">  2  3  1 -1</clus>
<clus scale="  550.268">  1  3  2 -1</clus>
</clustering>
</event>
<event>
 4   0  0.3464723E-02  0.3542833E+03  0.7816531E-02  0.1060871E+00
       21   -1    0    0  501  502  0.00000000000E+00  0.00000000000E+00  0.84796661819E+02  0.84796661819E+02  0.00000000000E+00 0.  1.
       21   -1    0    0  502  503  0.00000000000E+00  0.00000000000E+00 -0.18385997288E+04  0.18385997288E+04  0.00000000000E+00 0.  1.
  1000006    1    1    2  501    0 -0.51858524295E+02 -0.18092428491E+02 -0.45230681761E+03  0.57454164319E+03  0.35000000000E+03 0.  0.
 -1000006    1    1    2    0  503  0.51858524295E+02  0.18092428491E+02 -0.13014962493E+04  0.13488547474E+04  0.35000000000E+03 0.  0.
<scales pt_clust_1="13000.00000" pt_clust_2="13000.00000"></scales>
<clustering>
<clus scale="  354.283">  1  3  2 -1</clus>
<clus scale="  354.283">  1  3  2 -1</clus>
</clustering>
</event>
<event>
 6   2  0.3464723E-02  0.3748294E+03  0.7816531E-02  0.1052862E+00
        2   -1    0    0  504    0  0.00000000000E+00  0.00000000000E+00  0.40210825314E+03  0.40210825314E+03  0.00000000000E+00 0. -1.
       21   -1    0    0  501  503  0.00000000000E+00  0.00000000000E+00 -0.11506506188E+04  0.11506506188E+04  0.00000000000E+00 0. -1.
  1000006    1    1    2  501    0 -0.99677922136E+02 -0.10637862097E+03 -0.62726486621E+03  0.73294836895E+03  0.35000000000E+03 0.  0.
 -1000006    1    1    2    0  502  0.86604173229E+02  0.14046743372E+01 -0.33164943209E+02  0.36208033555E+03  0.35000000000E+03 0.  0.
       21    1    1    2  504  503 -0.30775269581E+02  0.12441862396E+02 -0.25759063371E+03  0.25972071873E+03  0.00000000000E+00 0. -1.
        2    1    1    2  502    0  0.43849018488E+02  0.92532084235E+02  0.16947807748E+03  0.19800944872E+03  0.00000000000E+00 0. -1.
<scales pt_clust_1="13000.00000" pt_clust_2="13000.00000" pt_clust_3="33.19514" pt_clust_4="102.36633"></scales>
<clustering>
<clus scale="   33.195">  2  5  1 -1</clus>
<clus scale="  102.366">  1  6  2 -1</clus>
<clus scale="  374.829">  1  4  2 -1</clus>
<clus scale="  374.829">  2  3  1 -1</clus>
</clustering>
</event>
<event>
 4   0  0.3464723E-02  0.4748601E+03  0.7816531E-02  0.1020557E+00
       21   -1    0    0  501  502  0.00000000000E+00  0.00000000000E+00  0.11228744623E+04  0.11228744623E+04  0.00000000000E+00 0.  1.
       21   -1    0    0  502  503  0.00000000000E+00  0.00000000000E+00 -0.39403354924E+03  0.39403354924E+03  0.00000000000E+00 0.  1.
  1000006    1    1    2  501    0 -0.14778998994E+03 -0.28486880782E+03  0.89553106004E+03  0.10136409612E+04  0.35000000000E+03 0.  0.
 -1000006    1    1    2    0  503  0.14778998994E+03  0.28486880782E+03 -0.16669014700E+03  0.50326705028E+03  0.35000000000E+03 0.  0.
<scales pt_clust_1="13000.00000" pt_clust_2="13000.00000"></scales>
<clustering>
<clus scale="  474.860">  1  3  2 -1</clus>
<clus scale="  474.860">  1  3  2 -1</clus>
</clustering>
</event>
<event>
 5   1  0.3464723E-02  0.5005357E+03  0.7816531E-02  0.1017057E+00
       21   -1    0    0  501  503  0.00000000000E+00  0.00000000000E+00  0.58606608754E+03  0.58606608754E+03  0.00000000000E+00 0. -1.
        1   -1    0    0  503    0  0.00000000000E+00  0.00000000000E+00 -0.90341180386E+03  0.90341180386E+03  0.00000000000E+00 0. -1.
  1000006    1    1    2  501    0  0.48790597769E+02 -0.28006504069E+03 -0.14260301478E+03  0.47291919952E+03  0.35000000000E+03 0.  0.
 -1000006    1    1    2    0  502 -0.32816795893E+03 -0.79787586058E+02 -0.26238142392E+03  0.55263394736E+03  0.35000000000E+03 0.  0.
        1    1    1    2  502    0  0.27937736117E+03  0.35985262675E+03  0.87638722390E+02  0.46392474451E+03  0.00000000000E+00 0. -1.
<scales pt_clust_1="13000.00000" pt_clust_2="13000.00000" pt_clust_3="357.82131"></scales>
<clustering>
<clus scale="  450.907">  1  3  2 -1</clus>
<clus scale="  357.821">  2  5  1 -1</clus>
<clus scale="  500.536">  1  3  2 -1</clus>
</clustering>
</event>
<event>
 4   0  0.3464723E-02  0.3801599E+03  0.7816531E-02  0.1050875E+00
       21   -1    0    0  503  502  0.00000000000E+00  0.00000000000E+00  0.39465519822E+03  0.39465519822E+03  0.00000000000E+00 0.  1.
       21   -1    0    0  501  503  0.00000000000E+00  0.00000000000E+00 -0.39939468946E+03  0.39939468946E+03  0.00000000000E+00 0.  1.
  1000006    1    1    2  501    0  0.12344961360E+02  0.14788231158E+03 -0.11683406741E+03  0.39770815362E+03  0.35000000000E+03 0.  0.
 -1000006    1    1    2    0  502 -0.12344961360E+02 -0.14788231158E+03  0.11209457617E+03  0.39634173406E+03  0.35000000000E+03 0.  0.
<scales pt_clust_1="13000.00000" pt_clust_2="13000.00000"></scales>
<clustering>
<clus scale="  380.160">  2  3  1 -1</clus>
<clus scale="  380.160">  1  3  2 -1</clus>
</clustering>
</event>
<event>
 5   1  0.3464723E-02  0.3897118E+03  0.7816531E-02  0.1047401E+00
       21   -1    0    0  504  502  0.00000000000E+00  0.00000000000E+00  0.38325974955E+03  0.38325974955E+03  0.00000000000E+00 0.  1.
       21   -1    0    0  501  503  0.00000000000E+00  0.00000000000E+00 -0.10767964700E+04  0.10767964700E+04  0.00000000000E+00 0.  1.
  1000006    1    1    2  501    0  0.81166866788E+02 -0.90910420622E+02 -0.44556588909E+03  0.57955304016E+03  0.35000000000E+03 0.  0.
 -1000006    1    1    2    0  502  0.10652574540E+03  0.17687339106E+03  0.14919633826E+03  0.43288737363E+03  0.35000000000E+03 0.  0.
       21    1    1    2  504  503 -0.18769261218E+03 -0.85962970434E+02 -0.39716716964E+03  0.44761580579E+03  0.00000000000E+00 0.  1.
<scales pt_clust_1="13000.00000" pt_clust_2="13000.00000" pt_clust_3="206.44164"></scales>
<clustering>
<clus scale="  206.442">  2  5  1 -1</clus>
<clus scale="  389.712">  2  3  1 -1</clus>
<clus scale="  389.712">  1  3  2 -1</clus>
</clustering>
</event>
<event>
 5   1  0.3464723E-02  0.5024609E+03  0.7816531E-02  0.1013139E+00
       21   -1    0    0  501  502  0.00000000000E+00  0.00000000000E+00  0.49776604794E+03  0.49776604794E+03  0.00000000000E+00 0. -1.
       21   -1    0    0  504  503  0.00000000000E+00  0.00000000000E+00 -0.73925634140E+03  0.73925634140E+03  0.00000000000E+00 0. -1.
  1000006    1    1    2  501    0  0.17823894296E+03  0.26151679812E+03 -0.36054228179E+02  0.47324419051E+03  0.35000000000E+03 0.  0.
 -1000006    1    1    2    0  503 -0.95749822619E+02 -0.39176655765E+03 -0.26790509622E+03  0.59742966515E+03  0.35000000000E+03 0.  0.
       21    1    1    2  504  502 -0.82489120336E+02  0.13024975953E+03  0.62469030941E+02  0.16634853368E+03  0.00000000000E+00 0. -1.
<scales pt_clust_1="13000.00000" pt_clust_2="13000.00000" pt_clust_3="154.17346"></scales>
<clustering>
<clus scale="  154.173">  1  5  2 -1</clus>
<clus scale="  502.461">  1  3  2 -1</clus>
<clus scale="  502.461">  1  3  2 -1</clus>
</clustering>
</event>
<event>
 4   0  0.3464723E-02  0.4294219E+03  0.7816531E-02  0.1034043E+00
       21   -1    0    0  501  502  0.00000000000E+00  0.00000000000E+00  0.17784113997E+03  0.17784113997E+03  0.00000000000E+00 0. -1.
       21   -1    0    0  502  503  0.00000000000E+00  0.00000000000E+00 -0.11003220845E+04  0.11003220845E+04  0.00000000000E+00 0. -1.
  1000006    1    1    2  501    0 -0.24174046510E+03 -0.58861765832E+02 -0.30780605543E+03  0.52834432684E+03  0.35000000000E+03 0.  0.
 -1000006    1    1    2    0  503  0.24174046510E+03  0.58861765832E+02 -0.61467488910E+03  0.74981889762E+03  0.35000000000E+03 0.  0.
<scales pt_clust_1="13000.00000" pt_clust_2="13000.00000"></scales>
<clustering>
<clus scale="  429.422">  2  4  1 -1</clus>
<clus scale="  429.422">  1  3  2 -1</clus>
</clustering>
</event>
<event>
 5   1  0.3464723E-02  0.4394362E+03  0.7816531E-02  0.1030920E+00
       21   -1    0    0  504  502  0.00000000000E+00  0.00000000000E+00  0.14618662087E+04  0.14618662087E+04  0.00000000000E+00 0.  1.
       21   -1    0    0  501  503  0.00000000000E+00  0.00000000000E+00 -0.15904780588E+03  0.15904780588E+03  0.00000000000E+00 0.  1.
  1000006    1    1    2  501    0 -0.24327302734E+03  0.11997825220E+03  0.44651503677E+03  0.62884992239E+03  0.35000000000E+03 0.  0.
 -1000006    1    1    2    0  502  0.21052779564E+03 -0.15328429841E+03  0.66636624421E+03  0.79646845530E+03  0.35000000000E+03 0.  0.
       21    1    1    2  504  503  0.32745231702E+02  0.33306046207E+02  0.18993712189E+03  0.19559563693E+03  0.00000000000E+00 0. -1.
<scales pt_clust_1="13000.00000" pt_clust_2="13000.00000" pt_clust_3="46.70699"></scales>
<clustering>
<clus scale="   46.707">  1  5  2 -1</clus>
<clus scale="  439.436">  1  4  2 -1</clus>
<clus scale="  439.436">  1  3  2 -1</clus>
</clustering>
</event>
<event>
 6   2  0.3464723E-02  0.3888832E+03  0.7816531E-02  0.1047698E+00
       21   -1    0    0  505  502  0.00000000000E+00  0.00000000000E+00  0.45190447866E+03  0.45190447866E+03  0.00000000000E+00 0.  1.
       21   -1    0    0  501  503  0.00000000000E+00  0.00000000000E+00 -0.14691756391E+04  0.14691756391E+04  0.00000000000E+00 0.  1.
  1000006    1    1    2  501    0 -0.12742477151E+03 -0.12810194337E+03 -0.54370510019E+03  0.67138842428E+03  0.35000000000E+03 0.  0.
 -1000006    1    1    2    0  502  0.10122629467E+03 -0.13481457697E+03  0.12909578617E+03  0.40937446782E+03  0.35000000000E+03 0.  0.
       21    1    1    2  504  503 -0.35158669768E+02 -0.54121167592E+02 -0.49608275402E+03  0.50026326237E+03  0.00000000000E+00 0. -1.
       21    1    1    2  505  504  0.61357146609E+02  0.31703768793E+03 -0.10657909239E+03  0.34005396328E+03  0.00000000000E+00 0.  1.
<scales pt_clust_1="13000.00000" pt_clust_2="13000.00000" pt_clust_3="64.53862" pt_clust_4="309.21393"></scales>
<clustering>
<clus scale="   64.539">  2  5  1 -1</clus>
<clus scale="  309.214">  1  6  2 -1</clus>
<clus scale="  388.883">  2  3  1 -1</clus>
<clus scale="  388.883">  1  3  2 -1</clus>
</clustering>
</event>
<event>
 4   0  0.3464723E-02  0.4066013E+03  0.7816531E-02  0.1041518E+00
       21   -1    0    0  501  502  0.00000000000E+00  0.00000000000E+00  0.31557686317E+03  0.31557686317E+03  0.00000000000E+00 0. -1.
       21   -1    0    0  502  503  0.00000000000E+00  0.00000000000E+00 -0.70515458875E+03  0.70515458875E+03  0.00000000000E+00 0. -1.
  1000006    1    1    2  501    0  0.19640209315E+03  0.65198564020E+02  0.63976970281E+02  0.41160379939E+03  0.35000000000E+03 0.  0.
 -1000006    1    1    2    0  503 -0.19640209315E+03 -0.65198564020E+02 -0.45355469586E+03  0.60912765253E+03  0.35000000000E+03 0.  0.
<scales pt_clust_1="13000.00000" pt_clust_2="13000.00000"></scales>
<clustering>
<clus scale="  406.601">  1  3  2 -1</clus>
<clus scale="  406.601">  1  3  2 -1</clus>
</clustering>
</event>
<event>
 6   2  0.3464723E-02  0.6451255E+03  0.7816531E-02  0.9815969E-01
       -2   -1    0    0    0  501  0.00000000000E+00  0.00000000000E+00  0.89517861219E+03  0.89517861219E+03  0.00000000000E+00 0. -1.
        2   -1    0    0  504    0  0.00000000000E+00  0.00000000000E+00 -0.84568001884E+03  0.84568001884E+03  0.00000000000E+00 0.  1.
  1000006    1    1    2  502    0  0.38116401181E+03  0.45216254370E+03  0.26354838075E+03  0.73599912963E+03  0.35000000000E+03 0.  0.
 -1000006    1    1    2    0  501 -0.34761555144E+03 -0.35003341864E+03  0.15032701272E+03  0.62326413062E+03  0.35000000000E+03 0.  0.
       21    1    1    2  503  502 -0.17475695201E+02 -0.42805119532E+02 -0.10004573300E+03  0.11021264389E+03  0.00000000000E+00 0.  1.
       21    1    1    2  504  503 -0.16072765169E+02 -0.59324005532E+02 -0.26433106712E+03  0.27138272689E+03  0.00000000000E+00 0.  1.
<scales pt_clust_1="13000.00000" pt_clust_2="13000.00000" pt_clust_3="31.13568" pt_clust_4="113.33391"></scales>
<clustering>
<clus scale="   31.136">  5  6 -1 -1</clus>
<clus scale="  113.334">  2  5  1 -1</clus>
<clus scale=" 1138.968">  3  4 -1 -1</clus>
<clus scale="  645.125">  2  3  1 -1</clus>
</clustering>
</event>
<event>
 5   1  0.3464723E-02  0.3631583E+03  0.7816531E-02  0.1057340E+00
       21   -1    0    0  503  502  0.00000000000E+00  0.00000000000E+00  0.66503431052E+03  0.66503431052E+03  0.00000000000E+00 0.  1.
       21   -1    0    0  501  503  0.00000000000E+00  0.00000000000E+00 -0.11364355112E+04  0.11364355112E+04  0.00000000000E+00 0. -1.
  1000006    1    1    2  501    0  0.15147254022E+03  0.12238117712E+03 -0.56702217690E+03  0.69421555157E+03  0.35000000000E+03 0.  0.
 -1000006    1    1    2    0  504 -0.32571034654E+02  0.12526888715E+03 -0.39597682445E+03  0.54410551540E+03  0.35000000000E+03 0.  0.
       21    1    1    2  504  502 -0.11890150557E+03 -0.24765006427E+03  0.49159780066E+03  0.56314875475E+03  0.00000000000E+00 0.  1.
<scales pt_clust_1="13000.00000" pt_clust_2="13000.00000" pt_clust_3="274.71462"></scales>
<clustering>
<clus scale="  274.715">  1  5  2 -1</clus>
<clus scale="  363.158">  2  3  1 -1</clus>
<clus scale="  363.158">  1  3  2 -1</clus>
</clustering>
</event>
<event>
 6   2  0.3464723E-02  0.3516389E+03  0.7816531E-02  0.1061944E+00
       21   -1    0    0  504  502  0.00000000000E+00  0.00000000000E+00  0.10435514551E+04  0.10435514551E+04  0.00000000000E+00 0. -1.
       21   -1    0    0  505  503  0.00000000000E+00  0.00000000000E+00 -0.18327647652E+03  0.18327647652E+03  0.00000000000E+00 0. -1.
  1000006    1    1    2  501    0 -0.34632966733E+01  0.48465734819E+01  0.39431203304E+03  0.52727361312E+03  0.35000000000E+03 0.  0.
 -1000006    1    1    2    0  503 -0.49246770034E+02  0.53082885546E+02  0.26117844168E+03  0.44267054961E+03  0.35000000000E+03 0.  0.
       21    1    1    2  504  501  0.66945355228E+01 -0.53899155171E+02  0.20355420078E+03  0.21067569482E+03  0.00000000000E+00 0. -1.
       21    1    1    2  505  502  0.46015531184E+02 -0.40303038577E+01  0.12303030478E+01  0.46208074023E+02  0.00000000000E+00 0. -1.
<scales pt_clust_1="13000.00000" pt_clust_2="13000.00000" pt_clust_3="54.53666" pt_clust_4="46.19169"></scales>
<clustering>
<clus scale="   46.192">  2  6  1 -1</clus>
<clus scale="   54.537">  1  5  2 -1</clus>
<clus scale="  351.639">  1  3  2 -1</clus>
<clus scale="  351.639">  1  3  2 -1</clus>
</clustering>
</event>
<event>
 6   2  0.3464723E-02  0.3687504E+03  0.7816531E-02  0.1055172E+00
       21   -1    0    0  504  502  0.00000000000E+00  0.00000000000E+00  0.99205019275E+03  0.99205019275E+03  0.00000000000E+00 0.  1.
       21   -1    0    0  501  503  0.00000000000E+00  0.00000000000E+00 -0.26211098850E+03  0.26211098850E+03  0.00000000000E+00 0.  1.
  1000006    1    1    2  501    0  0.51898453050E+02  0.11939910850E+03  0.15366517755E+03  0.40381008325E+03  0.35000000000E+03 0.  0.
 -1000006    1    1    2    0  505 -0.16732550245E+03  0.10258954404E+02  0.31869918669E+03  0.50216754327E+03  0.35000000000E+03 0.  0.
       21    1    1    2  504  503 -0.30907975570E+02  0.75977044288E+01  0.21696212341E+02  0.38519523574E+02  0.00000000000E+00 0.  1.
       21    1    1    2  505  502  0.14633502497E+03 -0.13725576734E+03  0.23587862767E+03  0.30966403115E+03  0.00000000000E+00 0.  1.
<scales pt_clust_1="13000.00000" pt_clust_2="13000.00000" pt_clust_3="31.82810" pt_clust_4="196.61072"></scales>
<clustering>
<clus scale="   31.828">  2  5  1 -1</clus>
<clus scale="  196.611">  1  6  2 -1</clus>
<clus scale="  368.750">  2  3  1 -1</clus>
<clus scale="  368.750">  1  3  2 -1</clus>
</clustering>
</event>
<event>
 6   2  0.3464723E-02  0.3667992E+03  0.7816531E-02  0.1055924E+00
       21   -1    0    0  501  503  0.00000000000E+00  0.00000000000E+00  0.12766439375E+03  0.12766439375E+03  0.00000000000E+00 0.  1.
        2   -1    0    0  504    0  0.00000000000E+00  0.00000000000E+00 -0.38254399046E+04  0.38254399046E+04  0.00000000000E+00 0.  1.
  1000006    1    1    2  501    0 -0.11791607040E+03  0.58133935243E+02 -0.29861099455E+03  0.47848958207E+03  0.35000000000E+03 0.  0.
 -1000006    1    1    2    0  502 -0.51217747455E+02 -0.13676095823E+03 -0.12675860675E+04  0.13231028894E+04  0.35000000000E+03 0.  0.
       21    1    1    2  504  503  0.13607358585E+02  0.12736948359E+03 -0.10321237820E+04  0.10400421371E+04  0.00000000000E+00 0. -1.
        2    1    1    2  502    0  0.15552645927E+03 -0.48742460600E+02 -0.10994546668E+04  0.11114696898E+04  0.00000000000E+00 0.  1.
<scales pt_clust_1="13000.00000" pt_clust_2="13000.00000" pt_clust_3="128.09428" pt_clust_4="160.92861"></scales>
<clustering>
<clus scale="  128.094">  2  5  1 -1</clus>
<clus scale="  160.929">  2  6  1 -1</clus>
<clus scale="  366.799">  1  3  2 -1</clus>
<clus scale="  366.799">  1  3  2 -1</clus>
</clustering>
</event>
<event>
 5   1  0.3464723E-02  0.3580610E+03  0.7816531E-02  0.1059354E+00
       21   -1    0    0  501  502  0.00000000000E+00  0.00000000000E+00  0.19397677100E+03  0.19397677100E+03  0.00000000000E+00 0. -1.
       21   -1    0    0  504  503  0.00000000000E+00  0.00000000000E+00 -0.11967879443E+04  0.11967879443E+04  0.00000000000E+00 0. -1.
  1000006    1    1    2  501    0  0.11296735889E+02 -0.32831157001E+02 -0.11725938291E+03  0.37074959743E+03  0.35000000000E+03 0.  0.
 -1000006    1    1    2    0  503  0.13123219652E+02  0.86888850764E+02 -0.89015469859E+03  0.96051927555E+03  0.35000000000E+03 0.  0.
       21    1    1    2  504  502 -0.24419955541E+02 -0.54057693763E+02  0.46029082530E+01  0.59495842275E+02  0.00000000000E+00 0. -1.
<scales pt_clust_1="13000.00000" pt_clust_2="13000.00000" pt_clust_3="59.31752"></scales>
<clustering>
<clus scale="   59.318">  1  5  2 -1</clus>
<clus scale="  358.061">  1  3  2 -1</clus>
<clus scale="  358.061">  1  3  2 -1</clus>
</clustering>
</event>
<event>
 6   2  0.3464723E-02  0.3727131E+03  0.7816531E-02  0.1053660E+00
       21   -1    0    0  504  503  0.00000000000E+00  0.00000000000E+00  0.48953232336E+03  0.48953232336E+03  0.00000000000E+00 0.  1.
        2   -1    0    0  503    0  0.00000000000E+00  0.00000000000E+00 -0.17761017170E+04  0.17761017170E+04  0.00000000000E+00 0.  1.
  1000006    1    1    2  501    0  0.11789137643E+03  0.76055227906E+02 -0.30413176861E+03  0.48443669040E+03  0.35000000000E+03 0.  0.
 -1000006    1    1    2    0  502 -0.94983900316E+02 -0.66766334320E+02 -0.55713812369E+03  0.66811868226E+03  0.35000000000E+03 0.  0.
       21    1    1    2  504  501 -0.35183007018E+02  0.28180996685E+02  0.34190390519E+03  0.34486271608E+03  0.00000000000E+00 0.  1.
        2    1    1    2  502    0  0.12275530901E+02 -0.37469890271E+02 -0.76720340652E+03  0.76821595161E+03  0.00000000000E+00 0.  1.
<scales pt_clust_1="13000.00000" pt_clust_2="13000.00000" pt_clust_3="45.02944" pt_clust_4="39.42945"></scales>
<clustering>
<clus scale="   39.429">  2  6  1 -1</clus>
<clus scale="   45.029">  1  5  2 -1</clus>
<clus scale="  372.713">  1  3  2 -1</clus>
<clus scale="  372.713">  1  3  2 -1</clus>
</clustering>
</event>
<event>
 4   0  0.3464723E-02  0.3754254E+03  0.7816531E-02  0.1052638E+00
       21   -1    0    0  501  502  0.00000000000E+00  0.00000000000E+00  0.22883231037E+04  0.22883231037E+04  0.00000000000E+00 0. -1.
       21   -1    0    0  502  503  0.00000000000E+00  0.00000000000E+00 -0.66122091912E+02  0.66122091912E+02  0.00000000000E+00 0. -1.
  1000006    1    1    2  501    0 -0.53950438853E+02  0.12463390765E+03  0.14192062188E+04  0.14680226675E+04  0.35000000000E+03 0.  0.
 -1000006    1    1    2    0  503  0.53950438853E+02 -0.12463390765E+03  0.80299479295E+03  0.88642252808E+03  0.35000000000E+03 0.  0.
<scales pt_clust_1="13000.00000" pt_clust_2="13000.00000"></scales>
<clustering>
<clus scale="  375.425">  1  3  2 -1</clus>
<clus scale="  375.425">  1  3  2 -1</clus>
</clustering>
</event>
<event>
 6   2  0.3464723E-02  0.3517690E+03  0.7816531E-02  0.1061891E+00
       21   -1    0    0  504  502  0.00000000000E+00  0.00000000000E+00  0.99088054929E+03  0.99088054929E+03  0.00000000000E+00 0.  1.
       21   -1    0    0  501  503  0.00000000000E+00  0.00000000000E+00 -0.61655848530E+03  0.61655848530E+03  0.00000000000E+00 0.  1.
  1000006    1    1    2  501    0 -0.36759933141E+02 -0.54161254098E+01 -0.31465007391E+03  0.47210729301E+03  0.35000000000E+03 0.  0.
 -1000006    1    1    2    0  505  0.29518269143E+02 -0.34238570387E+02 -0.51243625382E+02  0.35660835248E+03  0.35000000000E+03 0.  0.
       21    1    1    2  504  503 -0.30611637072E+02  0.48819825054E+02  0.25611668656E+02  0.63058744151E+02  0.00000000000E+00 0. -1.
       21    1    1    2  505  502  0.37853301070E+02 -0.91651292570E+01  0.71460409462E+03  0.71566464496E+03  0.00000000000E+00 0.  1.
<scales pt_clust_1="13000.00000" pt_clust_2="13000.00000" pt_clust_3="53.32134" pt_clust_4="38.94704"></scales>
<clustering>
<clus scale="   38.947">  1  6  2 -1</clus>
<clus scale="   53.321">  1  5  2 -1</clus>
<clus scale="  351.769">  2  3  1 -1</clus>
<clus scale="  351.769">  1  3  2 -1</clus>
</clustering>
</event>
<event>
 5   1  0.3464723E-02  0.3553354E+03  0.7816531E-02  0.1060446E+00
       21   -1    0    0  501  502  0.00000000000E+00  0.00000000000E+00  0.46437245846E+03  0.46437245846E+03  0.00000000000E+00 0.  1.
       21   -1    0    0  502  503  0.00000000000E+00  0.00000000000E+00 -0.47457231681E+03  0.47457231681E+03  0.00000000000E+00 0.  1.
  1000006    1    1    2  501    0 -0.78455221990E+01 -0.47467822063E+02  0.23265779726E+03  0.42301819934E+03  0.35000000000E+03 0.  0.
 -1000006    1    1    2    0  504  0.35180946167E+02  0.90849490951E+02 -0.11969352003E+03  0.38251518625E+03  0.35000000000E+03 0.  0.
       21    1    1    2  504  503 -0.27335423968E+02 -0.43381668888E+02 -0.12316413558E+03  0.13341138967E+03  0.00000000000E+00 0.  1.
<scales pt_clust_1="13000.00000" pt_clust_2="13000.00000" pt_clust_3="51.27567"></scales>
<clustering>
<clus scale="   51.276">  2  5  1 -1</clus>
<clus scale="  355.335">  1  3  2 -1</clus>
<clus scale="  355.335">  1  3  2 -1</clus>
</clustering>
</event>
<event>
 6   2  0.3464723E-02  0.3778554E+03  0.7816531E-02  0.1051729E+00
       21   -1    0    0  501  503  0.00000000000E+00  0.00000000000E+00  0.80270645872E+03  0.80270645872E+03  0.00000000000E+00 0. -1.
        2   -1    0    0  504    0  0.00000000000E+00  0.00000000000E+00 -0.14377486669E+04  0.14377486669E+04  0.00000000000E+00 0. -1.
  1000006    1    1    2  501    0  0.11779657196E+03  0.10613391547E+03  0.54993968576E+03  0.67087562063E+03  0.35000000000E+03 0.  0.
 -1000006    1    1    2    0  502 -0.13270517068E+03 -0.22718341527E+02 -0.61157606760E+02  0.37995662678E+03  0.35000000000E+03 0.  0.
       21    1    1    2  504  503  0.47682529880E+01 -0.30108998431E+02  0.25057151384E+02  0.39460725519E+02  0.00000000000E+00 0.  1.
        2    1    1    2  502    0  0.10140345733E+02 -0.53306575510E+02 -0.11488814385E+04  0.11501621527E+04  0.00000000000E+00 0. -1.
<scales pt_clust_1="13000.00000" pt_clust_2="13000.00000" pt_clust_3="30.48423" pt_clust_4="54.28781"></scales>
<clustering>
<clus scale="   30.484">  1  5  2 -1</clus>
<clus scale="   54.288">  2  6  1 -1</clus>
<clus scale="  377.855">  1  3  2 -1</clus>
<clus scale="  377.855">  1  3  2 -1</clus>
</clustering>
</event>
<event>
 6   2  0.3464723E-02  0.3562769E+03  0.7816531E-02  0.1060068E+00
        2   -1    0    0  501    0  0.00000000000E+00  0.00000000000E+00  0.23592465910E+04  0.23592465910E+04  0.00000000000E+00 0.  1.
       21   -1    0    0  504  503  0.00000000000E+00  0.00000000000E+00 -0.18143646182E+03  0.18143646182E+03  0.00000000000E+00 0.  1.
  1000006    1    1    2  501    0 -0.46408842569E+02  0.31048380674E+01  0.93596183935E+03  0.10003439336E+04  0.35000000000E+03 0.  0.
 -1000006    1    1    2    0  503  0.46426399013E+02  0.11195612007E+03  0.16498194538E+03  0.40547333531E+03  0.35000000000E+03 0.  0.
       21    1    1    2  504  502 -0.61457434348E+02 -0.35388034813E+02  0.20642641923E+02  0.73861003988E+02  0.00000000000E+00 0.  1.
        2    1    1    2  502    0  0.61439877905E+02 -0.79672923328E+02  0.10562237026E+04  0.10610047800E+04  0.00000000000E+00 0.  1.
<scales pt_clust_1="13000.00000" pt_clust_2="13000.00000" pt_clust_3="70.91776" pt_clust_4="100.47038"></scales>
<clustering>
<clus scale="   70.918">  2  5  1 -1</clus>
<clus scale="  100.470">  1  6  2 -1</clus>
<clus scale="  356.277">  1  3  2 -1</clus>
<clus scale="  356.277">  2  3  1 -1</clus>
</clustering>
</event>
<event>
 4   0  0.3464723E-02  0.4158674E+03  0.7816531E-02  0.1038420E+00
       21   -1    0    0  503  502  0.00000000000E+00  0.00000000000E+00  0.47726519158E+03  0.47726519158E+03  0.00000000000E+00 0. -1.
       21   -1    0    0  501  503  0.00000000000E+00  0.00000000000E+00 -0.42062005144E+03  0.42062005144E+03  0.00000000000E+00 0. -1.
  1000006    1    1    2  501    0  0.20884569411E+03 -0.82638682652E+02 -0.13874845198E+03  0.43840256471E+03  0.35000000000E+03 0.  0.
 -1000006    1    1    2    0  502 -0.20884569411E+03  0.82638682652E+02  0.19539359212E+03  0.45948267830E+03  0.35000000000E+03 0.  0.
<scales pt_clust_1="13000.00000" pt_clust_2="13000.00000"></scales>
<clustering>
<clus scale="  415.867">  2  3  1 -1</clus>
<clus scale="  415.867">  1  3  2 -1</clus>
</clustering>
</event>
<event>
 4   0  0.3464723E-02  0.3637368E+03  0.7816531E-02  0.1057114E+00
       21   -1    0    0  501  502  0.00000000000E+00  0.00000000000E+00  0.21619107964E+04  0.21619107964E+04  0.00000000000E+00 0.  1.
       21   -1    0    0  502  503  0.00000000000E+00  0.00000000000E+00 -0.95083651353E+02  0.95083651353E+02  0.00000000000E+00 0.  1.
  1000006    1    1    2  501    0  0.78780358625E+02  0.59984550733E+02  0.17070969958E+04  0.17454181860E+04  0.35000000000E+03 0.  0.
 -1000006    1    1    2    0  503 -0.78780358625E+02 -0.59984550733E+02  0.35973014926E+03  0.51157626168E+03  0.35000000000E+03 0.  0.
<scales pt_clust_1="13000.00000" pt_clust_2="13000.00000"></scales>
<clustering>
<clus scale="  363.737">  1  3  2 -1</clus>
<clus scale="  363.737">  1  3  2 -1</clus>
</clustering>
</event>
<event>
 6   2  0.3464723E-02  0.4696195E+03  0.7816531E-02  0.1022028E+00
       21   -1    0    0  504  502  0.00000000000E+00  0.00000000000E+00  0.14421858547E+03  0.14421858547E+03  0.00000000000E+00 0.  1.
       21   -1    0    0  505  503  0.00000000000E+00  0.00000000000E+00 -0.21987367025E+04  0.21987367025E+04  0.00000000000E+00 0.  1.
  1000006    1    1    2  501    0 -0.22286788398E+03 -0.21060374674E+03 -0.99162224487E+03  0.10953714933E+04  0.35000000000E+03 0.  0.
 -1000006    1    1    2    0  502  0.24162899651E+03  0.20553756172E+03 -0.54701769497E+03  0.72274381342E+03  0.35000000000E+03 0.  0.
       21    1    1    2  504  503  0.24081694989E+02 -0.29276889142E+02 -0.14294369818E+03  0.14788497260E+03  0.00000000000E+00 0.  1.
       21    1    1    2  505  501 -0.42842807529E+02  0.34343074168E+02 -0.37293447901E+03  0.37695500863E+03  0.00000000000E+00 0.  1.
<scales pt_clust_1="13000.00000" pt_clust_2="13000.00000" pt_clust_3="37.90863" pt_clust_4="48.15469"></scales>
<clustering>
<clus scale="   37.909">  2  5  1 -1</clus>
<clus scale="   48.155">  2  6  1 -1</clus>
<clus scale="  469.620">  2  3  1 -1</clus>
<clus scale="  469.620">  1  3  2 -1</clus>
</clustering>
</event>
<event>
 5   1  0.3464723E-02  0.3751806E+03  0.7816531E-02  0.1052730E+00
       21   -1    0    0  502  503  0.00000000000E+00  0.00000000000E+00  0.34044841594E+03  0.34044841594E+03  0.00000000000E+00 0.  1.
       -2   -1    0    0    0  501  0.00000000000E+00  0.00000000000E+00 -0.68456683231E+03  0.68456683231E+03  0.00000000000E+00 0.  1.
  1000006    1    1    2  502    0  0.12225160992E+02 -0.11743272292E+03 -0.29431037282E+02  0.37054835707E+03  0.35000000000E+03 0.  0.
 -1000006    1    1    2    0  501 -0.39963778401E+02  0.14931178966E+03 -0.49343968170E+02  0.38577965383E+03  0.35000000000E+03 0.  0.
       -2    1    1    2    0  503  0.27738617409E+02 -0.31879066745E+02 -0.26534341092E+03  0.26868723734E+03  0.00000000000E+00 0.  1.
<scales pt_clust_1="13000.00000" pt_clust_2="13000.00000" pt_clust_3="42.25761"></scales>
<clustering>
<clus scale="   42.258">  2  5  1 -1</clus>
<clus scale="  375.181">  2  4  1 -1</clus>
<clus scale="  375.181">  1  3  2 -1</clus>
</clustering>
</event>
<event>
 6   2  0.3464723E-02  0.3582443E+03  0.7816531E-02  0.1059281E+00
       21   -1    0    0  501  502  0.00000000000E+00  0.00000000000E+00  0.23575952649E+03  0.23575952649E+03  0.00000000000E+00 0.  1.
       21   -1    0    0  505  503  0.00000000000E+00  0.00000000000E+00 -0.16656885642E+04  0.16656885642E+04  0.00000000000E+00 0. -1.
  1000006    1    1    2  501    0  0.59975783139E+02 -0.86809440093E+02 -0.66626278223E+02  0.37158045482E+03  0.35000000000E+03 0.  0.
 -1000006    1    1    2    0  504 -0.39374827453E+02 -0.17181205615E+02 -0.42185696947E+03  0.54982622123E+03  0.35000000000E+03 0.  0.
       21    1    1    2  504  503  0.61822808797E+02  0.38791826689E+02 -0.80257758624E+03  0.80588935186E+03  0.00000000000E+00 0. -1.
       21    1    1    2  505  502 -0.82423764483E+02  0.65198819018E+02 -0.13886820378E+03  0.17415206279E+03  0.00000000000E+00 0.  1.
<scales pt_clust_1="13000.00000" pt_clust_2="13000.00000" pt_clust_3="72.98538" pt_clust_4="101.42893"></scales>
<clustering>
<clus scale="   72.985">  2  5  1 -1</clus>
<clus scale="  101.429">  2  6  1 -1</clus>
<clus scale="  358.244">  2  4  1 -1</clus>
<clus scale="  358.244">  1  3  2 -1</clus>
</clustering>
</event>
<event>
 5   1  0.3464723E-02  0.3895844E+03  0.7816531E-02  0.1047447E+00
       21   -1    0    0  504  502  0.00000000000E+00  0.00000000000E+00  0.21098518071E+03  0.21098518071E+03  0.00000000000E+00 0. -1.
       21   -1    0    0  501  503  0.00000000000E+00  0.00000000000E+00 -0.21746213652E+04  0.21746213652E+04  0.00000000000E+00 0. -1.
  1000006    1    1    2  501    0 -0.15402464935E+03  0.42254969468E+02 -0.30352376039E+03  0.49003647637E+03  0.35000000000E+03 0.  0.
 -1000006    1    1    2    0  502  0.12096802015E+03 -0.15710043166E+03 -0.23585212413E+03  0.46630465576E+03  0.35000000000E+03 0.  0.
       21    1    1    2  504  503  0.33056629198E+02  0.11484546220E+03 -0.14242602999E+04  0.14292654137E+04  0.00000000000E+00 0. -1.
<scales pt_clust_1="13000.00000" pt_clust_2="13000.00000" pt_clust_3="119.50825"></scales>
<clustering>
<clus scale="  119.508">  2  5  1 -1</clus>
<clus scale="  389.584">  2  3  1 -1</clus>
<clus scale="  389.584">  1  3  2 -1</clus>
</clustering>
</event>
<event>
 5   1  0.3464723E-02  0.4174695E+03  0.7816531E-02  0.1037893E+00
       21   -1    0    0  504  502  0.00000000000E+00  0.00000000000E+00  0.71987255093E+03  0.71987255093E+03  0.00000000000E+00 0.  1.
       21   -1    0    0  502  503  0.00000000000E+00  0.00000000000E+00 -0.10065202865E+04  0.10065202865E+04  0.00000000000E+00 0.  1.
  1000006    1    1    2  501    0  0.10288511320E+03  0.22416237257E+03 -0.20180852607E+03  0.47335060684E+03  0.35000000000E+03 0.  0.
 -1000006    1    1    2    0  503 -0.64915438028E+02 -0.20938527247E+03 -0.60432580165E+03  0.73196030013E+03  0.35000000000E+03 0.  0.
       21    1    1    2  504  501 -0.37969675169E+02 -0.14777100102E+02  0.51948659211E+03  0.52108193051E+03  0.00000000000E+00 0.  1.
<scales pt_clust_1="13000.00000" pt_clust_2="13000.00000" pt_clust_3="40.74382"></scales>
<clustering>
<clus scale="   40.744">  1  5  2 -1</clus>
<clus scale="  417.470">  1  3  2 -1</clus>
<clus scale="  417.470">  1  3  2 -1</clus>
</clustering>
</event>
<event>
 4   0  0.3464723E-02  0.4481831E+03  0.7816531E-02  0.1028265E+00
       21   -1    0    0  501  502  0.00000000000E+00  0.00000000000E+00  0.99689950952E+02  0.99689950952E+02  0.00000000000E+00 0.  1.
       21   -1    0    0  502  503  0.00000000000E+00  0.00000000000E+00 -0.21346321067E+04  0.21346321067E+04  0.00000000000E+00 0.  1.
  1000006    1    1    2  501    0  0.27012021156E+03  0.73506298298E+02 -0.75292080251E+03  0.87621791778E+03  0.35000000000E+03 0.  0.
 -1000006    1    1    2    0  503 -0.27012021156E+03 -0.73506298298E+02 -0.12820213533E+04  0.13581041399E+04  0.35000000000E+03 0.  0.
<scales pt_clust_1="13000.00000" pt_clust_2="13000.00000"></scales>
<clustering>
<clus scale="  448.183">  1  3  2 -1</clus>
<clus scale="  448.183">  1  3  2 -1</clus>
</clustering>
</event>
<event>
 6   2  0.3464723E-02  0.3605925E+03  0.7816531E-02  0.1058350E+00
       21   -1    0    0  504  502  0.00000000000E+00  0.00000000000E+00  0.48572478414E+03  0.48572478414E+03  0.00000000000E+00 0.  1.
       21   -1    0    0  505  503  0.00000000000E+00  0.00000000000E+00 -0.86145983852E+03  0.86145983852E+03  0.00000000000E+00 0.  1.
  1000006    1    1    2  501    0 -0.76323979357E+02 -0.25429949725E+02 -0.14777451777E+03  0.38834178280E+03  0.35000000000E+03 0.  0.
 -1000006    1    1    2    0  502  0.11319268585E+03  0.20221504555E+02  0.19183888957E+03  0.41535966695E+03  0.35000000000E+03 0.  0.
       21    1    1    2  504  503 -0.60810443666E+02  0.44166258797E+02  0.37437765667E+02  0.83965199774E+02  0.00000000000E+00 0. -1.
       21    1    1    2  505  501  0.23941737173E+02 -0.38957813627E+02 -0.45723719185E+03  0.45951797313E+03  0.00000000000E+00 0. -1.
<scales pt_clust_1="13000.00000" pt_clust_2="13000.00000" pt_clust_3="72.72461" pt_clust_4="45.72656"></scales>
<clustering>
<clus scale="   45.727">  2  6  1 -1</clus>
<clus scale="   72.725">  1  5  2 -1</clus>
<clus scale="  360.593">  2  3  1 -1</clus>
<clus scale="  360.593">  1  3  2 -1</clus>
</clustering>
</event>
<event>
 6   2  0.3464723E-02  0.8832772E+03  0.7816531E-02  0.9446731E-01
       21   -1    0    0  503  502  0.00000000000E+00  0.00000000000E+00  0.23462809998E+04  0.23462809998E+04  0.00000000000E+00 0.  1.
       21   -1    0    0  504  503  0.00000000000E+00  0.00000000000E+00 -0.44972949978E+03  0.44972949978E+03  0.00000000000E+00 0. -1.
  1000006    1    1    2  501    0  0.27871928569E+03  0.77420449210E+03  0.47339149109E+03  0.10117690150E+04  0.35000000000E+03 0.  0.
 -1000006    1    1    2    0  502 -0.30841562017E+03 -0.74431225680E+03  0.13966688471E+04  0.16499408471E+04  0.35000000000E+03 0.  0.
       21    1    1    2  504  505 -0.27193366921E+02  0.23597883432E+02 -0.22178844887E+02  0.42287592359E+02  0.00000000000E+00 0. -1.
       21    1    1    2  505  501  0.56889701396E+02 -0.53490118727E+02  0.48670006668E+02  0.92013045137E+02  0.00000000000E+00 0. -1.
<scales pt_clust_1="13000.00000" pt_clust_2="13000.00000" pt_clust_3="36.00471" pt_clust_4="76.21991"></scales>
<clustering>
<clus scale="   36.005">  2  5  1 -1</clus>
<clus scale="   76.220">  2  6  1 -1</clus>
<clus scale="  883.277">  2  3  1 -1</clus>
<clus scale="  883.277">  1  3  2 -1</clus>
</clustering>
</event>
<event>
 4   0  0.3464723E-02  0.3643643E+03  0.7816531E-02  0.1056869E+00
       21   -1    0    0  503  502  0.00000000000E+00  0.00000000000E+00  0.20065975362E+04  0.20065975362E+04  0.00000000000E+00 0. -1.
       21   -1    0    0  501  503  0.00000000000E+00  0.00000000000E+00 -0.71404246724E+02  0.71404246724E+02  0.00000000000E+00 0. -1.
  1000006    1    1    2  501    0 -0.81745537853E+02 -0.59824600339E+02  0.68608529125E+03  0.77683611054E+03  0.35000000000E+03 0.  0.
 -1000006    1    1    2    0  502  0.81745537853E+02  0.59824600339E+02  0.12491079982E+04  0.13011656724E+04  0.35000000000E+03 0.  0.
<scales pt_clust_1="13000.00000" pt_clust_2="13000.00000"></scales>
<clustering>
<clus scale="  364.364">  2  3  1 -1</clus>
<clus scale="  364.364">  1  3  2 -1</clus>
</clustering>
</event>
<event>
 5   1  0.3464723E-02  0.3931804E+03  0.7816531E-02  0.1046167E+00
       21   -1    0    0  504  502  0.00000000000E+00  0.00000000000E+00  0.18340944785E+03  0.18340944785E+03  0.00000000000E+00 0.  1.
       21   -1    0    0  502  503  0.00000000000E+00  0.00000000000E+00 -0.11962132781E+04  0.11962132781E+04  0.00000000000E+00 0.  1.
  1000006    1    1    2  501    0  0.18644151155E+03  0.74807115409E+02 -0.51615937739E+03  0.65519237221E+03  0.35000000000E+03 0.  0.
 -1000006    1    1    2    0  503 -0.15718571171E+03 -0.34434422915E+02 -0.53658794188E+03  0.66054499984E+03  0.35000000000E+03 0.  0.
       21    1    1    2  504  501 -0.29255799835E+02 -0.40372692494E+02  0.39943489038E+02  0.63885353875E+02  0.00000000000E+00 0.  1.
<scales pt_clust_1="13000.00000" pt_clust_2="13000.00000" pt_clust_3="49.85836"></scales>
<clustering>
<clus scale="   49.858">  1  5  2 -1</clus>
<clus scale="  393.180">  1  3  2 -1</clus>
<clus scale="  393.180">  1  3  2 -1</clus>
</clustering>
</event>
<event>
 5   1  0.3464723E-02  0.3635999E+03  0.7816531E-02  0.1057167E+00
       21   -1    0    0  504  502  0.00000000000E+00  0.00000000000E+00  0.18199753790E+04  0.18199753790E+04  0.00000000000E+00 0. -1.
       21   -1    0    0  502  503  0.00000000000E+00  0.00000000000E+00 -0.35076483597E+03  0.35076483597E+03  0.00000000000E+00 0.  1.
  1000006    1    1    2  501    0  0.97352424538E+02  0.13744454530E+03  0.42451742404E+03  0.57539859307E+03  0.35000000000E+03 0.  0.
 -1000006    1    1    2    0  503 -0.86957556037E+02 -0.19528026248E+02 -0.15269190116E+03  0.39211959533E+03  0.35000000000E+03 0.  0.
       21    1    1    2  504  501 -0.10394868501E+02 -0.11791651906E+03  0.11973850201E+04  0.12032220265E+04  0.00000000000E+00 0. -1.
<scales pt_clust_1="13000.00000" pt_clust_2="13000.00000" pt_clust_3="118.37381"></scales>
<clustering>
<clus scale="  118.374">  1  5  2 -1</clus>
<clus scale="  363.600">  1  3  2 -1</clus>
<clus scale="  363.600">  1  3  2 -1</clus>
</clustering>
</event>
<event>
 6   2  0.3464723E-02  0.6409759E+03  0.7816531E-02  0.9823861E-01
       21   -1    0    0  505  502  0.00000000000E+00  0.00000000000E+00  0.20786638599E+04  0.20786638599E+04  0.00000000000E+00 0.  1.
       21   -1    0    0  501  503  0.00000000000E+00  0.00000000000E+00 -0.40534526809E+03  0.40534526809E+03  0.00000000000E+00 0. -1.
  1000006    1    1    2  501    0 -0.94193448298E+02 -0.52012998581E+03  0.20665556954E+03  0.66679392039E+03  0.35000000000E+03 0.  0.
 -1000006    1    1    2    0  504 -0.47028966956E+02  0.55918521571E+03  0.49943102832E+03  0.82875278657E+03  0.35000000000E+03 0.  0.
       21    1    1    2  504  502  0.78600388799E+02 -0.46696921419E+02  0.85368744352E+03  0.85856908563E+03  0.00000000000E+00 0.  1.
       21    1    1    2  505  503  0.62622026455E+02  0.76416915194E+01  0.11354455044E+03  0.12989333540E+03  0.00000000000E+00 0. -1.
<scales pt_clust_1="13000.00000" pt_clust_2="13000.00000" pt_clust_3="114.51983" pt_clust_4="63.08656"></scales>
<clustering>
<clus scale="   63.087">  1  6  2 -1</clus>
<clus scale="  114.520">  1  5  2 -1</clus>
<clus scale="  640.976">  2  3  1 -1</clus>
<clus scale="  640.976">  1  3  2 -1</clus>
</clustering>
</event>
<event>
 4   0  0.3464723E-02  0.3605013E+03  0.7816531E-02  0.1058386E+00
       21   -1    0    0  503  502  0.00000000000E+00  0.00000000000E+00  0.39537423877E+03  0.39537423877E+03  0.00000000000E+00 0.  1.
       21   -1    0    0  501  503  0.00000000000E+00  0.00000000000E+00 -0.96279734961E+03  0.96279734961E+03  0.00000000000E+00 0.  1.
  1000006    1    1    2  501    0 -0.75059908601E+02  0.42745350271E+02 -0.83481579088E+03  0.90932863122E+03  0.35000000000E+03 0.  0.
 -1000006    1    1    2    0  502  0.75059908601E+02 -0.42745350271E+02  0.26739268004E+03  0.44884295715E+03  0.35000000000E+03 0.  0.
<scales pt_clust_1="13000.00000" pt_clust_2="13000.00000"></scales>
<clustering>
<clus scale="  360.501">  2  3  1 -1</clus>
<clus scale="  360.501">  1  3  2 -1</clus>
</clustering>
</event>
<event>
 6   2  0.3464723E-02  0.3898040E+03  0.7816531E-02  0.1047369E+00
       21   -1    0    0  501  502  0.00000000000E+00  0.00000000000E+00  0.13841410211E+04  0.13841410211E+04  0.00000000000E+00 0. -1.
       21   -1    0    0  504  503  0.00000000000E+00  0.00000000000E+00 -0.17073736084E+03  0.17073736084E+03  0.00000000000E+00 0. -1.
  1000006    1    1    2  501    0 -0.17872918615E+03  0.57142302966E+02  0.66669967759E+03  0.77601406229E+03  0.35000000000E+03 0.  0.
 -1000006    1    1    2    0  503  0.10107111396E+03 -0.11715544565E+03  0.40981812058E+03  0.56070639419E+03  0.35000000000E+03 0.  0.
       21    1    1    2  504  505  0.92002110700E+02  0.24747325795E+02  0.22905124893E+02  0.97987056562E+02  0.00000000000E+00 0.  1.
       21    1    1    2  505  502 -0.14344038508E+02  0.35265816888E+02  0.11398073719E+03  0.12017086890E+03  0.00000000000E+00 0.  1.
<scales pt_clust_1="13000.00000" pt_clust_2="13000.00000" pt_clust_3="95.06563" pt_clust_4="38.07137"></scales>
<clustering>
<clus scale="   38.071">  1  6  2 -1</clus>
<clus scale="   95.066">  2  5  1 -1</clus>
<clus scale="  389.804">  1  3  2 -1</clus>
<clus scale="  389.804">  1  3  2 -1</clus>
</clustering>
</event>
<event>
 6   2  0.3464723E-02  0.3686970E+03  0.7816531E-02  0.1055192E+00
       21   -1    0    0  501  502  0.00000000000E+00  0.00000000000E+00  0.25681205631E+03  0.25681205631E+03  0.00000000000E+00 0.  1.
       21   -1    0    0  505  503  0.00000000000E+00  0.00000000000E+00 -0.98601752048E+03  0.98601752048E+03  0.00000000000E+00 0.  1.
  1000006    1    1    2  501    0 -0.15421334685E+03  0.64726684763E+02 -0.33710348380E+03  0.51391639287E+03  0.35000000000E+03 0.  0.
 -1000006    1    1    2    0  503  0.80602593020E+02 -0.86307371588E+01 -0.44414390593E+03  0.57125745229E+03  0.35000000000E+03 0.  0.
       21    1    1    2  504  502  0.27068827399E+02  0.32591849107E+02 -0.45579032554E+01  0.42611319236E+02  0.00000000000E+00 0.  1.
       21    1    1    2  505  504  0.46541926435E+02 -0.88687796711E+02  0.56599828817E+02  0.11504441240E+03  0.00000000000E+00 0.  1.
<scales pt_clust_1="13000.00000" pt_clust_2="13000.00000" pt_clust_3="42.36685" pt_clust_4="95.33315"></scales>
<clustering>
<clus scale="   42.367">  1  5  2 -1</clus>
<clus scale="   95.333">  1  6  2 -1</clus>
<clus scale="  368.697">  2  4  1 -1</clus>
<clus scale="  368.697">  1  3  2 -1</clus>
</clustering>
</event>
<event>
 5   1  0.3464723E-02  0.4964347E+03  0.7816531E-02  0.1014714E+00
       21   -1    0    0  503  502  0.00000000000E+00  0.00000000000E+00  0.67293150431E+03  0.67293150431E+03  0.00000000000E+00 0.  1.
       21   -1    0    0  504  503  0.00000000000E+00  0.00000000000E+00 -0.93467314834E+03  0.93467314834E+03  0.00000000000E+00 0. -1.
  1000006    1    1    2  501    0 -0.33245684869E+03 -0.31320762538E+02 -0.33755889292E+03  0.58987672661E+03  0.35000000000E+03 0.  0.
 -1000006    1    1    2    0  502  0.35158879259E+03  0.60328931389E+02  0.43155416294E+03  0.66029785293E+03  0.35000000000E+03 0.  0.
       21    1    1    2  504  501 -0.19131943900E+02 -0.29008168851E+02 -0.35573691406E+03  0.35743007311E+03  0.00000000000E+00 0. -1.
<scales pt_clust_1="13000.00000" pt_clust_2="13000.00000" pt_clust_3="34.74917"></scales>
<clustering>
<clus scale="   34.749">  2  5  1 -1</clus>
<clus scale="  496.435">  2  3  1 -1</clus>
<clus scale="  496.435">  1  3  2 -1</clus>
</clustering>
</event>
<event>
 5   1  0.3464723E-02  0.4708318E+03  0.7816531E-02  0.1021686E+00
       21   -1    0    0  504  502  0.00000000000E+00  0.00000000000E+00  0.35201859453E+03  0.35201859453E+03  0.00000000000E+00 0.  1.
       21   -1    0    0  501  503  0.00000000000E+00  0.00000000000E+00 -0.95863676242E+03  0.95863676242E+03  0.00000000000E+00 0. -1.
  1000006    1    1    2  501    0 -0.32519220398E+03  0.18801875153E+03 -0.49005652207E+03  0.70975799768E+03  0.35000000000E+03 0.  0.
 -1000006    1    1    2    0  502  0.21669347026E+03 -0.19713437800E+03 -0.22433498557E+02  0.45696967613E+03  0.35000000000E+03 0.  0.
       21    1    1    2  504  503  0.10849873372E+03  0.91156264739E+01 -0.94128147269E+02  0.14392768314E+03  0.00000000000E+00 0. -1.
<scales pt_clust_1="13000.00000" pt_clust_2="13000.00000" pt_clust_3="108.88099"></scales>
<clustering>
<clus scale="  108.881">  2  5  1 -1</clus>
<clus scale="  470.832">  2  3  1 -1</clus>
<clus scale="  470.832">  1  3  2 -1</clus>
</clustering>
</event>
<event>
 6   2  0.3464723E-02  0.4545119E+03  0.7816531E-02  0.1026385E+00
       21   -1    0    0  501  502  0.00000000000E+00  0.00000000000E+00  0.83611862166E+03  0.83611862166E+03  0.00000000000E+00 0.  1.
       21   -1    0    0  504  503  0.00000000000E+00  0.00000000000E+00 -0.59550572045E+03  0.59550572045E+03  0.00000000000E+00 0. -1.
  1000006    1    1    2  501    0 -0.28857648473E+03  0.15030246475E+03  0.34572246783E+03  0.58982306093E+03  0.35000000000E+03 0.  0.
 -1000006    1    1    2    0  503  0.21378845664E+03 -0.12885172408E+03  0.18968130791E+03  0.46988005870E+03  0.35000000000E+03 0.  0.
       21    1    1    2  504  505  0.22641859340E+02 -0.26435110559E+02 -0.31415174215E+03  0.31607401975E+03  0.00000000000E+00 0. -1.
       21    1    1    2  505  502  0.52146168746E+02  0.49843698833E+01  0.19360867615E+02  0.55847202730E+02  0.00000000000E+00 0.  1.
<scales pt_clust_1="13000.00000" pt_clust_2="13000.00000" pt_clust_3="34.80616" pt_clust_4="53.71859"></scales>
<clustering>
<clus scale="   34.806">  2  5  1 -1</clus>
<clus scale="   53.719">  2  6  1 -1</clus>
<clus scale="  454.512">  2  4  1 -1</clus>
<clus scale="  454.512">  1  3  2 -1</clus>
</clustering>
</event>
<event>
 5   1  0.3464723E-02  0.3659842E+03  0.7816531E-02  0.1056239E+00
       21   -1    0    0  501  502  0.00000000000E+00  0.00000000000E+00  0.95703218655E+03  0.95703218655E+03  0.00000000000E+00 0. -1.
       21   -1    0    0  504  503  0.00000000000E+00  0.00000000000E+00 -0.67193838039E+03  0.67193838039E+03  0.00000000000E+00 0.  1.
  1000006    1    1    2  501    0  0.87692931651E+02  0.33104701402E+02 -0.19582042762E+03  0.41186358347E+03  0.35000000000E+03 0.  0.
 -1000006    1    1    2    0  503 -0.51811376095E+02 -0.12565473917E+03 -0.26821836728E+03  0.46142672735E+03  0.35000000000E+03 0.  0.
       21    1    1    2  504  502 -0.35881555556E+02  0.92550037768E+02  0.74913260106E+03  0.75568025612E+03  0.00000000000E+00 0. -1.
<scales pt_clust_1="13000.00000" pt_clust_2="13000.00000" pt_clust_3="99.26226"></scales>
<clustering>
<clus scale="   99.262">  1  5  2 -1</clus>
<clus scale="  365.984">  1  3  2 -1</clus>
<clus scale="  365.984">  1  3  2 -1</clus>
</clustering>
</event>
<event>
 6   2  0.3464723E-02  0.5837277E+03  0.7816531E-02  0.9939753E-01
        1   -1    0    0  504    0  0.00000000000E+00  0.00000000000E+00  0.21976764117E+04  0.21976764117E+04  0.00000000000E+00 0.  1.
       21   -1    0    0  502  503  0.00000000000E+00  0.00000000000E+00 -0.66942080466E+03  0.66942080466E+03  0.00000000000E+00 0. -1.
  1000006    1    1    2  501    0 -0.28319474260E+03 -0.35800999297E+03  0.93310175483E+02  0.58273253397E+03  0.35000000000E+03 0.  0.
 -1000006    1    1    2    0  503  0.30743804122E+03  0.36056161608E+03 -0.21045860859E+03  0.62555227928E+03  0.35000000000E+03 0.  0.
       21    1    1    2  504  501  0.22726233279E+02 -0.36477655289E+02  0.68644708554E+02  0.80988869772E+02  0.00000000000E+00 0. -1.
        1    1    1    2  502    0 -0.46969531897E+02  0.33926032181E+02  0.15767593316E+04  0.15778235333E+04  0.00000000000E+00 0.  1.
<scales pt_clust_1="13000.00000" pt_clust_2="13000.00000" pt_clust_3="42.97791" pt_clust_4="30.84790"></scales>
<clustering>
<clus scale="   42.978">  1  5  2 -1</clus>
<clus scale="   30.848">  1  6  2 -1</clus>
<clus scale="  583.728">  1  3  2 -1</clus>
<clus scale="  583.728">  2  3  1 -1</clus>
</clustering>
</event>
<event>
 5   1  0.3464723E-02  0.4687367E+03  0.7816531E-02  0.1022277E+00
       -1   -1    0    0    0  501  0.00000000000E+00  0.00000000000E+00  0.34308371960E+03  0.34308371960E+03  0.00000000000E+00 0.  1.
       21   -1    0    0  502  503  0.00000000000E+00  0.00000000000E+00 -0.11130756103E+04  0.11130756103E+04  0.00000000000E+00 0.  1.
  1000006    1    1    2  502    0 -0.59206392863E+02 -0.30604661612E+03 -0.15757338308E+02  0.46895439214E+03  0.35000000000E+03 0.  0.
 -1000006    1    1    2    0  501 -0.25218734885E+02  0.31873353078E+03 -0.39226551404E+03  0.61530421885E+03  0.35000000000E+03 0.  0.
       -1    1    1    2    0  503  0.84425127748E+02 -0.12686914665E+02 -0.36196903834E+03  0.37190071889E+03  0.00000000000E+00 0.  1.
<scales pt_clust_1="13000.00000" pt_clust_2="13000.00000" pt_clust_3="85.37306"></scales>
<clustering>
<clus scale="   85.373">  2  5  1 -1</clus>
<clus scale="  796.458">  3  4 -1 -1</clus>
<clus scale="  468.737">  2  3  1 -1</clus>
</clustering>
</event>
<event>
 6   2  0.3464723E-02  0.3511878E+03  0.7816531E-02  0.1062334E+00
       21   -1    0    0  501  502  0.00000000000E+00  0.00000000000E+00  0.12655562767E+04  0.12655562767E+04  0.00000000000E+00 0. -1.
       21   -1    0    0  504  503  0.00000000000E+00  0.00000000000E+00 -0.36484871050E+03  0.36484871050E+03  0.00000000000E+00 0. -1.
  1000006    1    1    2  501    0  0.31452775106E+02 -0.42051856339E+02  0.73267908588E+03  0.81368069817E+03  0.35000000000E+03 0.  0.
 -1000006    1    1    2    0  503  0.13599307167E+03 -0.24119463318E+03  0.11176220898E+03  0.46006494973E+03  0.35000000000E+03 0.  0.
       21    1    1    2  504  505 -0.99949274800E+02  0.18068807248E+03 -0.27091507686E+02  0.20825942201E+03  0.00000000000E+00 0. -1.
       21    1    1    2  505  502 -0.67496571974E+02  0.10255841704E+03  0.83357779066E+02  0.14839991733E+03  0.00000000000E+00 0. -1.
<scales pt_clust_1="13000.00000" pt_clust_2="13000.00000" pt_clust_3="352.19312" pt_clust_4="96.84324"></scales>
<clustering>
<clus scale="   96.843">  5  6 -1 -1</clus>
<clus scale="  352.193">  2  5  1 -1</clus>
<clus scale="  352.193">  2  4  1 -1</clus>
<clus scale="  350.185">  1  3  2 -1</clus>
</clustering>
</event>
<event>
 6   2  0.3464723E-02  0.4293844E+03  0.7816531E-02  0.1034055E+00
        2   -1    0    0  501    0  0.00000000000E+00  0.00000000000E+00  0.24119136314E+04  0.24119136314E+04  0.00000000000E+00 0. -1.
       21   -1    0    0  502  503  0.00000000000E+00  0.00000000000E+00 -0.22094324071E+03  0.22094324071E+03  0.00000000000E+00 0. -1.
  1000006    1    1    2  501    0  0.26790706129E+02  0.19158511620E+03  0.53793437544E+03  0.67029545050E+03  0.35000000000E+03 0.  0.
 -1000006    1    1    2    0  504 -0.17286200126E+03 -0.27041615819E+03  0.42425553826E+03  0.63678798029E+03  0.35000000000E+03 0.  0.
       21    1    1    2  504  503  0.14176468219E+03  0.67602236124E+01  0.58892233598E+02  0.15365943159E+03  0.00000000000E+00 0. -1.
        2    1    1    2  502    0  0.43066129448E+01  0.72070818377E+02  0.11698882434E+04  0.11721140097E+04  0.00000000000E+00 0. -1.
<scales pt_clust_1="13000.00000" pt_clust_2="13000.00000" pt_clust_3="142.72067" pt_clust_4="72.19938"></scales>
<clustering>
<clus scale="   72.199">  1  6  2 -1</clus>
<clus scale="  142.721">  2  5  1 -1</clus>
<clus scale="  429.384">  1  3  2 -1</clus>
<clus scale="  429.384">  2  3  1 -1</clus>
</clustering>
</event>
<event>
 4   0  0.3464723E-02  0.3909536E+03  0.7816531E-02  0.1046958E+00
       21   -1    0    0  501  502  0.00000000000E+00  0.00000000000E+00  0.42642629799E+03  0.42642629799E+03  0.00000000000E+00 0. -1.
       21   -1    0    0  502  503  0.00000000000E+00  0.00000000000E+00 -0.12450691489E+04  0.12450691489E+04  0.00000000000E+00 0. -1.
  1000006    1    1    2  501    0  0.16313832039E+03 -0.61078578668E+02  0.29594222502E+03  0.49033305508E+03  0.35000000000E+03 0.  0.
 -1000006    1    1    2    0  503 -0.16313832039E+03  0.61078578668E+02 -0.11145850759E+04  0.11811623918E+04  0.35000000000E+03 0.  0.
<scales pt_clust_1="13000.00000" pt_clust_2="13000.00000"></scales>
<clustering>
<clus scale="  390.954">  1  3  2 -1</clus>
<clus scale="  390.954">  1  3  2 -1</clus>
</clustering>
</event>
<event>
 6   2  0.3464723E-02  0.3633118E+03  0.7816531E-02  0.1057280E+00
       21   -1    0    0  504  502  0.00000000000E+00  0.00000000000E+00  0.41705465818E+03  0.41705465818E+03  0.00000000000E+00 0. -1.
       21   -1    0    0  501  503  0.00000000000E+00  0.00000000000E+00 -0.95227298146E+03  0.95227298146E+03  0.00000000000E+00 0. -1.
  1000006    1    1    2  501    0  0.47728751270E+02 -0.83295107826E+02 -0.27364191983E+03  0.45452833682E+03  0.35000000000E+03 0.  0.
 -1000006    1    1    2    0  502 -0.86844895575E+02  0.41225325864E+02  0.50823364363E+02  0.36650317563E+03  0.35000000000E+03 0.  0.
       21    1    1    2  504  505  0.99261265892E+02  0.96722222434E+02  0.71457907421E+02  0.15593017589E+03  0.00000000000E+00 0. -1.
       21    1    1    2  505  503 -0.60145121587E+02 -0.54652440472E+02 -0.38385767524E+03  0.39236595130E+03  0.00000000000E+00 0. -1.
<scales pt_clust_1="13000.00000" pt_clust_2="13000.00000" pt_clust_3="132.51266" pt_clust_4="81.26700"></scales>
<clustering>
<clus scale="   81.267">  2  6  1 -1</clus>
<clus scale="  132.513">  1  5  2 -1</clus>
<clus scale="  363.312">  1  4  2 -1</clus>
<clus scale="  363.312">  1  3  2 -1</clus>
</clustering>
</event>
<event>
 6   2  0.3464723E-02  0.3707250E+03  0.7816531E-02  0.1054416E+00
       21   -1    0    0  501  502  0.00000000000E+00  0.00000000000E+00  0.23597975104E+03  0.23597975104E+03  0.00000000000E+00 0. -1.
       21   -1    0    0  504  503  0.00000000000E+00  0.00000000000E+00 -0.14738445592E+04  0.14738445592E+04  0.00000000000E+00 0. -1.
  1000006    1    1    2  501    0  0.22287547888E+02  0.14271264361E+03 -0.13128176022E+03  0.40074746912E+03  0.35000000000E+03 0.  0.
 -1000006    1    1    2    0  503 -0.89400293694E+02 -0.59076888819E+02 -0.99341788367E+03  0.10587075058E+04  0.35000000000E+03 0.  0.
       21    1    1    2  504  505 -0.46560122034E+02  0.12205737957E+02 -0.86960874826E+02  0.99393253058E+02  0.00000000000E+00 0.  1.
       21    1    1    2  505  502  0.11367286784E+03 -0.95841492750E+02 -0.26204289428E+02  0.15097608221E+03  0.00000000000E+00 0. -1.
<scales pt_clust_1="13000.00000" pt_clust_2="13000.00000" pt_clust_3="48.13341" pt_clust_4="145.90178"></scales>
<clustering>
<clus scale="   48.133">  2  5  1 -1</clus>
<clus scale="  145.902">  1  6  2 -1</clus>
<clus scale="  370.725">  2  4  1 -1</clus>
<clus scale="  370.725">  1  3  2 -1</clus>
</clustering>
</event>
<event>
 6   2  0.3464723E-02  0.3594107E+03  0.7816531E-02  0.1058817E+00
       21   -1    0    0  501  503  0.00000000000E+00  0.00000000000E+00  0.10597633959E+04  0.10597633959E+04  0.00000000000E+00 0. -1.
        2   -1    0    0  504    0  0.00000000000E+00  0.00000000000E+00 -0.50234668509E+03  0.50234668509E+03  0.00000000000E+00 0. -1.
  1000006    1    1    2  501    0 -0.11610015895E+03  0.18701429928E+02  0.48489110037E+03  0.60946564268E+03  0.35000000000E+03 0.  0.
 -1000006    1    1    2    0  502 -0.38976899914E+02  0.18643038394E+03  0.24888146785E+03  0.46980578096E+03  0.35000000000E+03 0.  0.
       21    1    1    2  504  503  0.31782613108E+01  0.10369572264E+03 -0.58227281652E+02  0.11896772910E+03  0.00000000000E+00 0.  1.
        2    1    1    2  502    0  0.15189879755E+03 -0.30882753650E+03 -0.11812857578E+03  0.36387092824E+03  0.00000000000E+00 0. -1.
<scales pt_clust_1="13000.00000" pt_clust_2="13000.00000" pt_clust_3="103.74442" pt_clust_4="292.15594"></scales>
<clustering>
<clus scale="  103.744">  2  5  1 -1</clus>
<clus scale="  292.156">  2  6  1 -1</clus>
<clus scale="  359.411">  1  3  2 -1</clus>
<clus scale="  359.411">  1  3  2 -1</clus>
</clustering>
</event>
<event>
 4   0  0.3464723E-02  0.3964185E+03  0.7816531E-02  0.1045027E+00
       21   -1    0    0  501  502  0.00000000000E+00  0.00000000000E+00  0.49598281445E+03  0.49598281445E+03  0.00000000000E+00 0.  1.
       21   -1    0    0  502  503  0.00000000000E+00  0.00000000000E+00 -0.38813119491E+03  0.38813119491E+03  0.00000000000E+00 0.  1.
  1000006    1    1    2  501    0  0.11880755616E+03 -0.14329130449E+03  0.24338001806E+03  0.46516821316E+03  0.35000000000E+03 0.  0.
 -1000006    1    1    2    0  503 -0.11880755616E+03  0.14329130449E+03 -0.13552839852E+03  0.41894579619E+03  0.35000000000E+03 0.  0.
<scales pt_clust_1="13000.00000" pt_clust_2="13000.00000"></scales>
<clustering>
<clus scale="  396.419">  1  3  2 -1</clus>
<clus scale="  396.419">  1  3  2 -1</clus>
</clustering>
</event>
<event>
 5   1  0.3464723E-02  0.7822993E+03  0.7816531E-02  0.9585997E-01
       21   -1    0    0  501  502  0.00000000000E+00  0.00000000000E+00  0.84336511824E+03  0.84336511824E+03  0.00000000000E+00 0.  1.
       21   -1    0    0  504  503  0.00000000000E+00  0.00000000000E+00 -0.85418145690E+03  0.85418145690E+03  0.00000000000E+00 0. -1.
  1000006    1    1    2  501    0  0.58130215252E+03  0.37337560110E+03  0.25471181317E+03  0.81529113806E+03  0.35000000000E+03 0.  0.
 -1000006    1    1    2    0  503 -0.57082311312E+03 -0.41291023697E+03 -0.28533831979E+03  0.83681052037E+03  0.35000000000E+03 0.  0.
       21    1    1    2  504  502 -0.10479039400E+02  0.39534635868E+02  0.19810167958E+02  0.45444916707E+02  0.00000000000E+00 0.  1.
<scales pt_clust_1="13000.00000" pt_clust_2="13000.00000" pt_clust_3="40.89985"></scales>
<clustering>
<clus scale="   40.900">  1  5  2 -1</clus>
<clus scale="  782.299">  2  4  1 -1</clus>
<clus scale="  782.299">  1  3  2 -1</clus>
</clustering>
</event>
<event>
 6   2  0.3464723E-02  0.6052697E+03  0.7816531E-02  0.9894533E-01
       21   -1    0    0  504  503  0.00000000000E+00  0.00000000000E+00  0.17248585447E+04  0.17248585447E+04  0.00000000000E+00 0.  1.
        2   -1    0    0  503    0  0.00000000000E+00  0.00000000000E+00 -0.13523419568E+04  0.13523419568E+04  0.00000000000E+00 0. -1.
  1000006    1    1    2  501    0  0.39452650337E+03 -0.52718485405E+03  0.67303567721E+03  0.10045158311E+04  0.35000000000E+03 0.  0.
 -1000006    1    1    2    0  502 -0.23922297852E+03  0.32477131649E+03  0.12258437533E+03  0.54793336323E+03  0.35000000000E+03 0.  0.
       21    1    1    2  504  501 -0.78043650507E+02  0.20296228025E+03  0.52773496837E+03  0.57077902505E+03  0.00000000000E+00 0.  1.
        2    1    1    2  502    0 -0.77259874345E+02 -0.54874269177E+00 -0.95083843305E+03  0.95397228213E+03  0.00000000000E+00 0. -1.
<scales pt_clust_1="13000.00000" pt_clust_2="13000.00000" pt_clust_3="218.94920" pt_clust_4="77.26182"></scales>
<clustering>
<clus scale="   77.262">  2  6  1 -1</clus>
<clus scale="  218.949">  1  5  2 -1</clus>
<clus scale="  605.270">  1  3  2 -1</clus>
<clus scale="  605.270">  1  3  2 -1</clus>
</clustering>
</event>
<event>
 4   0  0.3464723E-02  0.4151549E+03  0.7816531E-02  0.1038655E+00
       21   -1    0    0  501  502  0.00000000000E+00  0.00000000000E+00  0.64944720247E+03  0.64944720247E+03  0.00000000000E+00 0. -1.
       21   -1    0    0  502  503  0.00000000000E+00  0.00000000000E+00 -0.26720960913E+03  0.26720960913E+03  0.00000000000E+00 0. -1.
  1000006    1    1    2  501    0 -0.19039019189E+03 -0.11664113459E+03  0.22899177849E+03  0.47412109641E+03  0.35000000000E+03 0.  0.
 -1000006    1    1    2    0  503  0.19039019189E+03  0.11664113459E+03  0.15324581486E+03  0.44253571519E+03  0.35000000000E+03 0.  0.
<scales pt_clust_1="13000.00000" pt_clust_2="13000.00000"></scales>
<clustering>
<clus scale="  415.155">  1  3  2 -1</clus>
<clus scale="  415.155">  1  3  2 -1</clus>
</clustering>
</event>
<event>
 5   1  0.3464723E-02  0.3571055E+03  0.7816531E-02  0.1059736E+00
       21   -1    0    0  504  502  0.00000000000E+00  0.00000000000E+00  0.76265674038E+03  0.76265674038E+03  0.00000000000E+00 0. -1.
       21   -1    0    0  501  503  0.00000000000E+00  0.00000000000E+00 -0.30577917704E+03  0.30577917704E+03  0.00000000000E+00 0. -1.
  1000006    1    1    2  501    0 -0.46529560734E+02 -0.34365253950E+02  0.61790402276E+02  0.36008891196E+03  0.35000000000E+03 0.  0.
 -1000006    1    1    2    0  502 -0.35738283910E+02 -0.12483070414E+03  0.37312657683E+03  0.52780997714E+03  0.35000000000E+03 0.  0.
       21    1    1    2  504  503  0.82267844645E+02  0.15919595809E+03  0.21960584245E+02  0.18053702832E+03  0.00000000000E+00 0. -1.
<scales pt_clust_1="13000.00000" pt_clust_2="13000.00000" pt_clust_3="179.19640"></scales>
<clustering>
<clus scale="  179.196">  2  5  1 -1</clus>
<clus scale="  357.105">  2  3  1 -1</clus>
<clus scale="  357.105">  1  3  2 -1</clus>
</clustering>
</event>
<event>
 6   2  0.3464723E-02  0.3692909E+03  0.7816531E-02  0.1054964E+00
       21   -1    0    0  502  503  0.00000000000E+00  0.00000000000E+00  0.22009770110E+04  0.22009770110E+04  0.00000000000E+00 0.  1.
        1   -1    0    0  501    0  0.00000000000E+00  0.00000000000E+00 -0.65141813913E+03  0.65141813913E+03  0.00000000000E+00 0.  1.
  1000006    1    1    2  501    0 -0.45640178857E+02  0.12438620226E+03  0.28714738391E+03  0.47170814422E+03  0.35000000000E+03 0.  0.
 -1000006    1    1    2    0  504 -0.92254813233E-01 -0.85331566241E+02  0.68367129301E+03  0.77277934859E+03  0.35000000000E+03 0.  0.
       21    1    1    2  504  503  0.14460465563E+02 -0.55375911386E+02  0.10919691025E+04  0.10934679316E+04  0.00000000000E+00 0.  1.
        1    1    1    2  502    0  0.31271968108E+02  0.16321275372E+02 -0.51322890747E+03  0.51443972580E+03  0.00000000000E+00 0.  1.
<scales pt_clust_1="13000.00000" pt_clust_2="13000.00000" pt_clust_3="57.19016" pt_clust_4="35.27492"></scales>
<clustering>
<clus scale="   35.275">  2  6  1 -1</clus>
<clus scale="   57.190">  1  5  2 -1</clus>
<clus scale="  369.291">  1  4  2 -1</clus>
<clus scale="  369.291">  1  3  2 -1</clus>
</clustering>
</event>
<event>
 4   0  0.3464723E-02  0.3715261E+03  0.7816531E-02  0.1054111E+00
       21   -1    0    0  503  502  0.00000000000E+00  0.00000000000E+00  0.12509522858E+03  0.12509522858E+03  0.00000000000E+00 0.  1.
       21   -1    0    0  501  503  0.00000000000E+00  0.00000000000E+00 -0.14928927227E+04  0.14928927227E+04  0.00000000000E+00 0.  1.
  1000006    1    1    2  501    0  0.11804510156E+03  0.39962323919E+02 -0.10971115000E+04  0.11583113903E+04  0.35000000000E+03 0.  0.
 -1000006    1    1    2    0  502 -0.11804510156E+03 -0.39962323919E+02 -0.27068599408E+03  0.45967656099E+03  0.35000000000E+03 0.  0.
<scales pt_clust_1="13000.00000" pt_clust_2="13000.00000"></scales>
<clustering>
<clus scale="  371.526">  2  3  1 -1</clus>
<clus scale="  371.526">  1  3  2 -1</clus>
</clustering>
</event>
<event>
 4   0  0.3464723E-02  0.3560752E+03  0.7816531E-02  0.1060149E+00
       21   -1    0    0  503  502  0.00000000000E+00  0.00000000000E+00  0.37585076306E+03  0.37585076306E+03  0.00000000000E+00 0. -1.
       21   -1    0    0  501  503  0.00000000000E+00  0.00000000000E+00 -0.33821279933E+03  0.33821279933E+03  0.00000000000E+00 0. -1.
  1000006    1    1    2  501    0  0.22752232243E+02  0.61415885424E+02  0.68400537354E+00  0.35607589488E+03  0.35000000000E+03 0.  0.
 -1000006    1    1    2    0  502 -0.22752232243E+02 -0.61415885424E+02  0.36953958356E+02  0.35798766751E+03  0.35000000000E+03 0.  0.
<scales pt_clust_1="13000.00000" pt_clust_2="13000.00000"></scales>
<clustering>
<clus scale="  356.075">  2  3  1 -1</clus>
<clus scale="  356.075">  1  3  2 -1</clus>
</clustering>
</event>
<event>
 6   2  0.3464723E-02  0.3951592E+03  0.7816531E-02  0.1045469E+00
       21   -1    0    0  504  502  0.00000000000E+00  0.00000000000E+00  0.13883519382E+04  0.13883519382E+04  0.00000000000E+00 0. -1.
       21   -1    0    0  501  503  0.00000000000E+00  0.00000000000E+00 -0.31122393522E+03  0.31122393522E+03  0.00000000000E+00 0. -1.
  1000006    1    1    2  501    0  0.59641181689E+02  0.14566967068E+03 -0.13069697654E+02  0.38398898487E+03  0.35000000000E+03 0.  0.
 -1000006    1    1    2    0  502 -0.10671878751E+03 -0.16252523392E+03  0.54501843923E+03  0.67627542493E+03  0.35000000000E+03 0.  0.
       21    1    1    2  504  505  0.30833746991E+02 -0.13932336586E+02  0.58525274845E+03  0.58622999712E+03  0.00000000000E+00 0.  1.
       21    1    1    2  505  503  0.16243858828E+02  0.30787899830E+02 -0.40073487022E+02  0.53081466517E+02  0.00000000000E+00 0.  1.
<scales pt_clust_1="13000.00000" pt_clust_2="13000.00000" pt_clust_3="33.83534" pt_clust_4="34.82813"></scales>
<clustering>
<clus scale="   33.835">  1  5  2 -1</clus>
<clus scale="   34.828">  2  6  1 -1</clus>
<clus scale="  395.159">  1  4  2 -1</clus>
<clus scale="  395.159">  1  3  2 -1</clus>
</clustering>
</event>
<event>
 5   1  0.3464723E-02  0.3753161E+03  0.7816531E-02  0.1052679E+00
       21   -1    0    0  503  502  0.00000000000E+00  0.00000000000E+00  0.61108741362E+03  0.61108741362E+03  0.00000000000E+00 0. -1.
       21   -1    0    0  504  503  0.00000000000E+00  0.00000000000E+00 -0.12368499788E+04  0.12368499788E+04  0.00000000000E+00 0. -1.
  1000006    1    1    2  501    0  0.10840956660E+03  0.32377180353E+02 -0.36033954764E+03  0.51492281512E+03  0.35000000000E+03 0.  0.
 -1000006    1    1    2    0  502  0.89034256509E+02  0.14764640194E+03  0.43441581377E+03  0.58390380894E+03  0.35000000000E+03 0.  0.
       21    1    1    2  504  501 -0.19744382311E+03 -0.18002358230E+03 -0.69983883136E+03  0.74911076841E+03  0.00000000000E+00 0. -1.
<scales pt_clust_1="13000.00000" pt_clust_2="13000.00000" pt_clust_3="267.19385"></scales>
<clustering>
<clus scale="  267.194">  2  5  1 -1</clus>
<clus scale="  375.316">  2  3  1 -1</clus>
<clus scale="  375.316">  1  3  2 -1</clus>
</clustering>
</event>
<event>
 6   2  0.3464723E-02  0.4164764E+03  0.7816531E-02  0.1038219E+00
       21   -1    0    0  505  502  0.00000000000E+00  0.00000000000E+00  0.63799515995E+03  0.63799515995E+03  0.00000000000E+00 0.  1.
       21   -1    0    0  504  503  0.00000000000E+00  0.00000000000E+00 -0.44513711027E+03  0.44513711027E+03  0.00000000000E+00 0.  1.
  1000006    1    1    2  501    0 -0.25909631571E+03 -0.38282325666E+02 -0.15288753718E+02  0.43741305795E+03  0.35000000000E+03 0.  0.
 -1000006    1    1    2    0  502  0.20825584343E+03 -0.44257953562E+02  0.26233680876E+03  0.48646671418E+03  0.35000000000E+03 0.  0.
       21    1    1    2  504  501  0.21829099423E+02 -0.26409923225E+02 -0.24369833469E+00  0.34264457026E+02  0.00000000000E+00 0.  1.
       21    1    1    2  505  503  0.29011372853E+02  0.10895020245E+03 -0.53946307023E+02  0.12498804107E+03  0.00000000000E+00 0.  1.
<scales pt_clust_1="13000.00000" pt_clust_2="13000.00000" pt_clust_3="34.26359" pt_clust_4="108.74141"></scales>
<clustering>
<clus scale="   34.264">  2  5  1 -1</clus>
<clus scale="  108.741">  2  6  1 -1</clus>
<clus scale="  416.476">  2  3  1 -1</clus>
<clus scale="  416.476">  1  3  2 -1</clus>
</clustering>
</event>
<event>
 5   1  0.3464723E-02  0.9132639E+03  0.7816531E-02  0.9409151E-01
       21   -1    0    0  502  503  0.00000000000E+00  0.00000000000E+00  0.87602913235E+03  0.87602913235E+03  0.00000000000E+00 0.  1.
        2   -1    0    0  501    0  0.00000000000E+00  0.00000000000E+00 -0.14861245930E+04  0.14861245930E+04  0.00000000000E+00 0. -1.
  1000006    1    1    2  501    0  0.75437322638E+03  0.38313732387E+03 -0.97632194407E+03  0.13384983049E+04  0.35000000000E+03 0.  0.
 -1000006    1    1    2    0  503 -0.72149882780E+03 -0.42103202986E+03  0.34572168211E+03  0.96945964855E+03  0.35000000000E+03 0.  0.
        2    1    1    2  502    0 -0.32874398581E+02  0.37894705990E+02  0.20504801282E+02  0.54195771973E+02  0.00000000000E+00 0. -1.
<scales pt_clust_1="13000.00000" pt_clust_2="13000.00000" pt_clust_3="50.16707"></scales>
<clustering>
<clus scale="   50.167">  1  5  2 -1</clus>
<clus scale=" 2135.181">  3  4 -1 -1</clus>
<clus scale="  913.264">  1  3  2 -1</clus>
</clustering>
</event>
<event>
 4   0  0.3464723E-02  0.4537486E+03  0.7816531E-02  0.1026610E+00
       21   -1    0    0  501  502  0.00000000000E+00  0.00000000000E+00  0.11003810168E+03  0.11003810168E+03  0.00000000000E+00 0.  1.
       21   -1    0    0  502  503  0.00000000000E+00  0.00000000000E+00 -0.18723766984E+04  0.18723766984E+04  0.00000000000E+00 0.  1.
  1000006    1    1    2  501    0  0.27428503520E+03 -0.90307884048E+02 -0.85487539843E+03  0.96783249651E+03  0.35000000000E+03 0.  0.
 -1000006    1    1    2    0  503 -0.27428503520E+03  0.90307884048E+02 -0.90746319828E+03  0.10145823036E+04  0.35000000000E+03 0.  0.
<scales pt_clust_1="13000.00000" pt_clust_2="13000.00000"></scales>
<clustering>
<clus scale="  453.749">  1  3  2 -1</clus>
<clus scale="  453.749">  1  3  2 -1</clus>
</clustering>
</event>
<event>
 6   2  0.3464723E-02  0.3869817E+03  0.7816531E-02  0.1048383E+00
       21   -1    0    0  505  502  0.00000000000E+00  0.00000000000E+00  0.22351956480E+04  0.22351956480E+04  0.00000000000E+00 0. -1.
       21   -1    0    0  504  503  0.00000000000E+00  0.00000000000E+00 -0.11323561244E+03  0.11323561244E+03  0.00000000000E+00 0. -1.
  1000006    1    1    2  501    0  0.15257879471E+03  0.12573538800E+03  0.79661359448E+03  0.89229081319E+03  0.35000000000E+03 0.  0.
 -1000006    1    1    2    0  502 -0.27663204465E+02 -0.14597898498E+03  0.88434124995E+03  0.96261859701E+03  0.35000000000E+03 0.  0.
       21    1    1    2  504  501 -0.27598194792E+02  0.66250855553E+02  0.48740072989E+02  0.86755005228E+02  0.00000000000E+00 0. -1.
       21    1    1    2  505  503 -0.97317395453E+02 -0.46007258568E+02  0.39226511810E+03  0.40676684498E+03  0.00000000000E+00 0. -1.
<scales pt_clust_1="13000.00000" pt_clust_2="13000.00000" pt_clust_3="71.76933" pt_clust_4="107.52718"></scales>
<clustering>
<clus scale="   71.769">  2  5  1 -1</clus>
<clus scale="  107.527">  1  6  2 -1</clus>
<clus scale="  386.982">  2  3  1 -1</clus>
<clus scale="  386.982">  1  3  2 -1</clus>
</clustering>
</event>
<event>
 4   0  0.3464723E-02  0.4059293E+03  0.7816531E-02  0.1041746E+00
       21   -1    0    0  503  502  0.00000000000E+00  0.00000000000E+00  0.36240771653E+03  0.36240771653E+03  0.00000000000E+00 0.  1.
       21   -1    0    0  501  503  0.00000000000E+00  0.00000000000E+00 -0.46645989304E+03  0.46645989304E+03  0.00000000000E+00 0.  1.
  1000006    1    1    2  501    0  0.18635481798E+03  0.86893647995E+02 -0.11789269568E+03  0.42270239169E+03  0.35000000000E+03 0.  0.
 -1000006    1    1    2    0  502 -0.18635481798E+03 -0.86893647995E+02  0.13840519162E+02  0.40616521788E+03  0.35000000000E+03 0.  0.
<scales pt_clust_1="13000.00000" pt_clust_2="13000.00000"></scales>
<clustering>
<clus scale="  405.929">  2  3  1 -1</clus>
<clus scale="  405.929">  1  3  2 -1</clus>
</clustering>
</event>
<event>
 6   2  0.3464723E-02  0.3616309E+03  0.7816531E-02  0.1057940E+00
       21   -1    0    0  501  502  0.00000000000E+00  0.00000000000E+00  0.10146109841E+04  0.10146109841E+04  0.00000000000E+00 0. -1.
       21   -1    0    0  504  503  0.00000000000E+00  0.00000000000E+00 -0.15661938087E+04  0.15661938087E+04  0.00000000000E+00 0.  1.
  1000006    1    1    2  501    0 -0.55337193338E+02 -0.12804742995E+03  0.42447853212E+03  0.56757411279E+03  0.35000000000E+03 0.  0.
 -1000006    1    1    2    0  503  0.98337019508E+02 -0.30495267820E+02  0.38748752206E+03  0.53220927324E+03  0.35000000000E+03 0.  0.
       21    1    1    2  504  505 -0.36055820156E+02  0.12067771585E+03 -0.14128601140E+04  0.14184628423E+04  0.00000000000E+00 0.  1.
       21    1    1    2  505  502 -0.69440060142E+01  0.37864981925E+02  0.49311235198E+02  0.62558564501E+02  0.00000000000E+00 0.  1.
<scales pt_clust_1="13000.00000" pt_clust_2="13000.00000" pt_clust_3="126.06076" pt_clust_4="38.49644"></scales>
<clustering>
<clus scale="   38.496">  1  6  2 -1</clus>
<clus scale="  126.061">  2  5  1 -1</clus>
<clus scale="  361.631">  1  3  2 -1</clus>
<clus scale="  361.631">  1  3  2 -1</clus>
</clustering>
</event>
<event>
 5   1  0.3464723E-02  0.3697956E+03  0.7816531E-02  0.1054771E+00
       21   -1    0    0  503  502  0.00000000000E+00  0.00000000000E+00  0.37816202693E+03  0.37816202693E+03  0.00000000000E+00 0. -1.
       21   -1    0    0  504  503  0.00000000000E+00  0.00000000000E+00 -0.67447708918E+03  0.67447708918E+03  0.00000000000E+00 0. -1.
  1000006    1    1    2  501    0  0.97139562927E+02 -0.23324240982E+02 -0.24862429810E+03  0.44078810840E+03  0.35000000000E+03 0.  0.
 -1000006    1    1    2    0  502 -0.12414782255E+03 -0.41583054705E+02  0.14951566230E+03  0.40248821791E+03  0.35000000000E+03 0.  0.
       21    1    1    2  504  501  0.27008259627E+02  0.64907295686E+02 -0.19720642645E+03  0.20936278980E+03  0.00000000000E+00 0. -1.
<scales pt_clust_1="13000.00000" pt_clust_2="13000.00000" pt_clust_3="70.30223"></scales>
<clustering>
<clus scale="   70.302">  2  5  1 -1</clus>
<clus scale="  369.796">  1  4  2 -1</clus>
<clus scale="  369.796">  1  3  2 -1</clus>
</clustering>
</event>
<event>
 4   0  0.3464723E-02  0.4113160E+03  0.7816531E-02  0.1039930E+00
       -2   -1    0    0    0  501  0.00000000000E+00  0.00000000000E+00  0.30588489152E+03  0.30588489152E+03  0.00000000000E+00 0.  1.
        2   -1    0    0  502    0  0.00000000000E+00  0.00000000000E+00 -0.68235224623E+03  0.68235224623E+03  0.00000000000E+00 0. -1.
  1000006    1    1    2  502    0 -0.13030525843E+02  0.21566416221E+03  0.26830696180E+02  0.41219014026E+03  0.35000000000E+03 0.  0.
 -1000006    1    1    2    0  501  0.13030525843E+02 -0.21566416221E+03 -0.40329805089E+03  0.57604699749E+03  0.35000000000E+03 0.  0.
<scales pt_clust_1="13000.00000" pt_clust_2="13000.00000"></scales>
<clustering>
<clus scale="  683.656">  3  4 -1 -1</clus>
<clus scale="  411.316">  2  3  1 -1</clus>
</clustering>
</event>
<event>
 5   1  0.3464723E-02  0.3948278E+03  0.7816531E-02  0.1045585E+00
        2   -1    0    0  501    0  0.00000000000E+00  0.00000000000E+00  0.22633399796E+04  0.22633399796E+04  0.00000000000E+00 0.  1.
       21   -1    0    0  502  503  0.00000000000E+00  0.00000000000E+00 -0.21683237590E+03  0.21683237590E+03  0.00000000000E+00 0. -1.
  1000006    1    1    2  501    0 -0.10534308812E+03  0.36872267917E+02  0.55385558310E+03  0.66461472846E+03  0.35000000000E+03 0.  0.
 -1000006    1    1    2    0  503 -0.83286741368E+01 -0.25331677661E+03  0.16021400613E+03  0.46087664715E+03  0.35000000000E+03 0.  0.
        2    1    1    2  502    0  0.11367176225E+03  0.21644450870E+03  0.13324380145E+04  0.13546809799E+04  0.00000000000E+00 0.  1.
<scales pt_clust_1="13000.00000" pt_clust_2="13000.00000" pt_clust_3="244.47800"></scales>
<clustering>
<clus scale="  244.478">  1  5  2 -1</clus>
<clus scale="  394.828">  1  3  2 -1</clus>
<clus scale="  394.828">  2  3  1 -1</clus>
</clustering>
</event>
<event>
 4   0  0.3464723E-02  0.3531697E+03  0.7816531E-02  0.1061322E+00
       21   -1    0    0  501  502  0.00000000000E+00  0.00000000000E+00  0.70436407490E+03  0.70436407490E+03  0.00000000000E+00 0. -1.
       21   -1    0    0  502  503  0.00000000000E+00  0.00000000000E+00 -0.17731301412E+03  0.17731301412E+03  0.00000000000E+00 0. -1.
  1000006    1    1    2  501    0  0.12426451308E+02  0.45545769801E+02  0.27950428308E+03  0.45039036191E+03  0.35000000000E+03 0.  0.
 -1000006    1    1    2    0  503 -0.12426451308E+02 -0.45545769801E+02  0.24754677769E+03  0.43128672712E+03  0.35000000000E+03 0.  0.
<scales pt_clust_1="13000.00000" pt_clust_2="13000.00000"></scales>
<clustering>
<clus scale="  353.170">  1  3  2 -1</clus>
<clus scale="  353.170">  1  3  2 -1</clus>
</clustering>
</event>
<event>
 5   1  0.3464723E-02  0.6111966E+03  0.7816531E-02  0.9882445E-01
       21   -1    0    0  502  503  0.00000000000E+00  0.00000000000E+00  0.16949888885E+03  0.16949888885E+03  0.00000000000E+00 0.  1.
        1   -1    0    0  501    0  0.00000000000E+00  0.00000000000E+00 -0.32337159456E+04  0.32337159456E+04  0.00000000000E+00 0. -1.
  1000006    1    1    2  501    0 -0.29515960013E+01  0.50058329706E+03 -0.13829188368E+04  0.15118058270E+04  0.35000000000E+03 0.  0.
 -1000006    1    1    2    0  503  0.51565950904E+02 -0.49985121580E+03 -0.17222234421E+04  0.18278577269E+04  0.35000000000E+03 0.  0.
        1    1    1    2  502    0 -0.48614354903E+02 -0.73208126059E+00  0.40925222221E+02  0.63551280549E+02  0.00000000000E+00 0. -1.
<scales pt_clust_1="13000.00000" pt_clust_2="13000.00000" pt_clust_3="48.61987"></scales>
<clustering>
<clus scale="   48.620">  1  5  2 -1</clus>
<clus scale=" 1068.448">  3  4 -1 -1</clus>
<clus scale="  611.197">  1  3  2 -1</clus>
</clustering>
</event>
<event>
 4   0  0.3464723E-02  0.3916350E+03  0.7816531E-02  0.1046715E+00
       21   -1    0    0  503  502  0.00000000000E+00  0.00000000000E+00  0.37205333017E+03  0.37205333017E+03  0.00000000000E+00 0. -1.
       21   -1    0    0  501  503  0.00000000000E+00  0.00000000000E+00 -0.47077528065E+03  0.47077528065E+03  0.00000000000E+00 0. -1.
  1000006    1    1    2  501    0 -0.10807815651E+03 -0.13855368071E+03 -0.19794903928E+03  0.43881867839E+03  0.35000000000E+03 0.  0.
 -1000006    1    1    2    0  502  0.10807815651E+03  0.13855368071E+03  0.99227088795E+02  0.40400993243E+03  0.35000000000E+03 0.  0.
<scales pt_clust_1="13000.00000" pt_clust_2="13000.00000"></scales>
<clustering>
<clus scale="  391.635">  2  3  1 -1</clus>
<clus scale="  391.635">  1  3  2 -1</clus>
</clustering>
</event>
<event>
 6   2  0.3464723E-02  0.3640062E+03  0.7816531E-02  0.1057009E+00
        2   -1    0    0  501    0  0.00000000000E+00  0.00000000000E+00  0.22987071060E+04  0.22987071060E+04  0.00000000000E+00 0. -1.
       21   -1    0    0  504  503  0.00000000000E+00  0.00000000000E+00 -0.74737963863E+03  0.74737963863E+03  0.00000000000E+00 0. -1.
  1000006    1    1    2  501    0  0.26079863405E+02 -0.16704027485E+03  0.29221067707E+03  0.48628149512E+03  0.35000000000E+03 0.  0.
 -1000006    1    1    2    0  503  0.16080296133E+03  0.25784737806E+02  0.10760827167E+03  0.40075177505E+03  0.35000000000E+03 0.  0.
       21    1    1    2  504  502 -0.12831203601E+03 -0.90030181809E+00 -0.49195506799E+03  0.50841378625E+03  0.00000000000E+00 0. -1.
        2    1    1    2  502    0 -0.58570788719E+02  0.14215583886E+03  0.16434635866E+04  0.16506396882E+04  0.00000000000E+00 0. -1.
<scales pt_clust_1="13000.00000" pt_clust_2="13000.00000" pt_clust_3="128.31519" pt_clust_4="154.45629"></scales>
<clustering>
<clus scale="  128.315">  2  5  1 -1</clus>
<clus scale="  154.456">  1  6  2 -1</clus>
<clus scale="  364.006">  2  4  1 -1</clus>
<clus scale="  364.006">  2  3  1 -1</clus>
</clustering>
</event>
<event>
 5   1  0.3464723E-02  0.5360319E+03  0.7816531E-02  0.1004780E+00
       21   -1    0    0  504  502  0.00000000000E+00  0.00000000000E+00  0.48313197930E+03  0.48313197930E+03  0.00000000000E+00 0.  1.
       21   -1    0    0  501  503  0.00000000000E+00  0.00000000000E+00 -0.18503240546E+04  0.18503240546E+04  0.00000000000E+00 0. -1.
  1000006    1    1    2  501    0  0.22872268195E+03  0.21281533308E+03 -0.71081818820E+03  0.85168475852E+03  0.35000000000E+03 0.  0.
 -1000006    1    1    2    0  502 -0.35199776473E+03 -0.41336692883E+03 -0.92268344031E+03  0.11263300472E+04  0.35000000000E+03 0.  0.
       21    1    1    2  504  503  0.12327508278E+03  0.20055159575E+03  0.26630955317E+03  0.35544122820E+03  0.00000000000E+00 0.  1.
<scales pt_clust_1="13000.00000" pt_clust_2="13000.00000" pt_clust_3="235.40962"></scales>
<clustering>
<clus scale="  235.410">  1  5  2 -1</clus>
<clus scale="  536.032">  2  3  1 -1</clus>
<clus scale="  536.032">  1  3  2 -1</clus>
</clustering>
</event>
<event>
 4   0  0.3464723E-02  0.3860342E+03  0.7816531E-02  0.1048726E+00
       21   -1    0    0  501  502  0.00000000000E+00  0.00000000000E+00  0.79642172977E+02  0.79642172977E+02  0.00000000000E+00 0. -1.
       21   -1    0    0  502  503  0.00000000000E+00  0.00000000000E+00 -0.24426519918E+04  0.24426519918E+04  0.00000000000E+00 0. -1.
  1000006    1    1    2  501    0 -0.38714036823E+02  0.15818862310E+03 -0.57148503927E+03  0.68965032244E+03  0.35000000000E+03 0.  0.
 -1000006    1    1    2    0  503  0.38714036823E+02 -0.15818862310E+03 -0.17915247796E+04  0.18326438424E+04  0.35000000000E+03 0.  0.
<scales pt_clust_1="13000.00000" pt_clust_2="13000.00000"></scales>
<clustering>
<clus scale="  386.034">  1  3  2 -1</clus>
<clus scale="  386.034">  1  3  2 -1</clus>
</clustering>
</event>
<event>
 4   0  0.3464723E-02  0.3569054E+03  0.7816531E-02  0.1059816E+00
       21   -1    0    0  501  502  0.00000000000E+00  0.00000000000E+00  0.31837575746E+03  0.31837575746E+03  0.00000000000E+00 0.  1.
       21   -1    0    0  502  503  0.00000000000E+00  0.00000000000E+00 -0.43270271838E+03  0.43270271838E+03  0.00000000000E+00 0.  1.
  1000006    1    1    2  501    0  0.64679806636E+02  0.26419727817E+02  0.45922889302E+02  0.35984773331E+03  0.35000000000E+03 0.  0.
 -1000006    1    1    2    0  503 -0.64679806636E+02 -0.26419727817E+02 -0.16024985022E+03  0.39123074253E+03  0.35000000000E+03 0.  0.
<scales pt_clust_1="13000.00000" pt_clust_2="13000.00000"></scales>
<clustering>
<clus scale="  356.905">  1  3  2 -1</clus>
<clus scale="  356.905">  1  3  2 -1</clus>
</clustering>
</event>
<event>
 4   0  0.3464723E-02  0.4221719E+03  0.7816531E-02  0.1036362E+00
       21   -1    0    0  503  502  0.00000000000E+00  0.00000000000E+00  0.34164330723E+03  0.34164330723E+03  0.00000000000E+00 0. -1.
       21   -1    0    0  501  503  0.00000000000E+00  0.00000000000E+00 -0.55536976061E+03  0.55536976061E+03  0.00000000000E+00 0. -1.
  1000006    1    1    2  501    0 -0.23464187548E+03 -0.25928696014E+02 -0.21732571003E+03  0.47482583254E+03  0.35000000000E+03 0.  0.
 -1000006    1    1    2    0  502  0.23464187548E+03  0.25928696014E+02  0.35992566587E+01  0.42218723530E+03  0.35000000000E+03 0.  0.
<scales pt_clust_1="13000.00000" pt_clust_2="13000.00000"></scales>
<clustering>
<clus scale="  422.172">  2  3  1 -1</clus>
<clus scale="  422.172">  1  3  2 -1</clus>
</clustering>
</event>
<event>
 5   1  0.3464723E-02  0.5041320E+03  0.7816531E-02  0.1012706E+00
        2   -1    0    0  501    0  0.00000000000E+00  0.00000000000E+00  0.35578667727E+04  0.35578667727E+04  0.00000000000E+00 0. -1.
       21   -1    0    0  502  503  0.00000000000E+00  0.00000000000E+00 -0.39313165938E+03  0.39313165938E+03  0.00000000000E+00 0.  1.
  1000006    1    1    2  501    0  0.54731866988E+03  0.13033411423E+03  0.11216558169E+04  0.13027495843E+04  0.35000000000E+03 0.  0.
 -1000006    1    1    2    0  503 -0.21159522802E+03 -0.27284982650E+03 -0.76459148957E+02  0.49755961432E+03  0.35000000000E+03 0.  0.
        2    1    1    2  502    0 -0.33572344186E+03  0.14251571227E+03  0.21195384453E+04  0.21506892334E+04  0.00000000000E+00 0. -1.
<scales pt_clust_1="13000.00000" pt_clust_2="13000.00000" pt_clust_3="364.72038"></scales>
<clustering>
<clus scale="  364.720">  1  5  2 -1</clus>
<clus scale="  504.132">  2  4  1 -1</clus>
<clus scale="  504.132">  2  3  1 -1</clus>
</clustering>
</event>
<event>
 4   0  0.3464723E-02  0.3568667E+03  0.7816531E-02  0.1059831E+00
       21   -1    0    0  503  502  0.00000000000E+00  0.00000000000E+00  0.12273284506E+03  0.12273284506E+03  0.00000000000E+00 0. -1.
       21   -1    0    0  501  503  0.00000000000E+00  0.00000000000E+00 -0.10422965358E+04  0.10422965358E+04  0.00000000000E+00 0. -1.
  1000006    1    1    2  501    0  0.19762319022E+02 -0.66808023774E+02 -0.49867099297E+03  0.61321009493E+03  0.35000000000E+03 0.  0.
 -1000006    1    1    2    0  502 -0.19762319022E+02  0.66808023774E+02 -0.42089269775E+03  0.55181928592E+03  0.35000000000E+03 0.  0.
<scales pt_clust_1="13000.00000" pt_clust_2="13000.00000"></scales>
<clustering>
<clus scale="  356.867">  2  3  1 -1</clus>
<clus scale="  356.867">  1  3  2 -1</clus>
</clustering>
</event>
<event>
 6   2  0.3464723E-02  0.9410629E+03  0.7816531E-02  0.9375658E-01
       21   -1    0    0  504  502  0.00000000000E+00  0.00000000000E+00  0.17765750921E+04  0.17765750921E+04  0.00000000000E+00 0. -1.
       21   -1    0    0  501  503  0.00000000000E+00  0.00000000000E+00 -0.15313782453E+04  0.15313782453E+04  0.00000000000E+00 0.  1.
  1000006    1    1    2  501    0  0.40559813838E+03  0.73970250098E+03 -0.84648465833E+03  0.12452734305E+04  0.35000000000E+03 0.  0.
 -1000006    1    1    2    0  505 -0.42613369754E+03 -0.86644117915E+03  0.17412320040E+03  0.10416953173E+04  0.35000000000E+03 0.  0.
       21    1    1    2  504  503 -0.11205649209E+03  0.14442447872E+01  0.31594544979E+02  0.11643435290E+03  0.00000000000E+00 0.  1.
       21    1    1    2  505  502  0.13259205124E+03  0.12529443338E+03  0.88596375975E+03  0.90455023668E+03  0.00000000000E+00 0. -1.
<scales pt_clust_1="13000.00000" pt_clust_2="13000.00000" pt_clust_3="112.06580" pt_clust_4="146.00260"></scales>
<clustering>
<clus scale="  112.066">  1  5  2 -1</clus>
<clus scale="  146.003">  1  6  2 -1</clus>
<clus scale="  941.063">  2  3  1 -1</clus>
<clus scale="  941.063">  1  3  2 -1</clus>
</clustering>
</event>
<event>
 4   0  0.3464723E-02  0.3893733E+03  0.7816531E-02  0.1047523E+00
       21   -1    0    0  503  502  0.00000000000E+00  0.00000000000E+00  0.29995725583E+03  0.29995725583E+03  0.00000000000E+00 0. -1.
       21   -1    0    0  501  503  0.00000000000E+00  0.00000000000E+00 -0.53490455170E+03  0.53490455170E+03  0.00000000000E+00 0. -1.
  1000006    1    1    2  501    0 -0.13611192761E+03  0.10288392771E+03 -0.21543793197E+03  0.44500006960E+03  0.35000000000E+03 0.  0.
 -1000006    1    1    2    0  502  0.13611192761E+03 -0.10288392771E+03 -0.19509363899E+02  0.38986173792E+03  0.35000000000E+03 0.  0.
<scales pt_clust_1="13000.00000" pt_clust_2="13000.00000"></scales>
<clustering>
<clus scale="  389.373">  2  3  1 -1</clus>
<clus scale="  389.373">  1  3  2 -1</clus>
</clustering>
</event>
<event>
 6   2  0.3464723E-02  0.4536801E+03  0.7816531E-02  0.1026630E+00
       21   -1    0    0  501  502  0.00000000000E+00  0.00000000000E+00  0.92711343507E+03  0.92711343507E+03  0.00000000000E+00 0.  1.
       21   -1    0    0  504  503  0.00000000000E+00  0.00000000000E+00 -0.57971714377E+03  0.57971714377E+03  0.00000000000E+00 0.  1.
  1000006    1    1    2  501    0  0.38646116298E+03 -0.58900399234E+02  0.17908190258E+03  0.55442926993E+03  0.35000000000E+03 0.  0.
 -1000006    1    1    2    0  503 -0.23283362696E+03 -0.17520480020E+02  0.98383059878E+02  0.43208528271E+03  0.35000000000E+03 0.  0.
       21    1    1    2  504  505  0.65828015962E+02  0.79749874362E+02 -0.16758319614E+03  0.19692002888E+03  0.00000000000E+00 0.  1.
       21    1    1    2  505  502 -0.21945555199E+03 -0.33289951081E+01  0.23751452498E+03  0.32339599732E+03  0.00000000000E+00 0.  1.
<scales pt_clust_1="13000.00000" pt_clust_2="13000.00000" pt_clust_3="103.40875" pt_clust_4="212.40954"></scales>
<clustering>
<clus scale="  103.409">  2  5  1 -1</clus>
<clus scale="  212.410">  1  6  2 -1</clus>
<clus scale="  453.680">  1  3  2 -1</clus>
<clus scale="  453.680">  1  3  2 -1</clus>
</clustering>
</event>
<event>
 6   2  0.3464723E-02  0.3633305E+03  0.7816531E-02  0.1057273E+00
       21   -1    0    0  504  502  0.00000000000E+00  0.00000000000E+00  0.11041072367E+04  0.11041072367E+04  0.00000000000E+00 0.  1.
       21   -1    0    0  501  503  0.00000000000E+00  0.00000000000E+00 -0.11328146246E+04  0.11328146246E+04  0.00000000000E+00 0.  1.
  1000006    1    1    2  501    0  0.88820414735E+02 -0.18799206747E+02  0.27027080784E+03  0.45142971304E+03  0.35000000000E+03 0.  0.
 -1000006    1    1    2    0  502 -0.41555791494E+02  0.14123698030E+03  0.51902294237E+03  0.64308598423E+03  0.35000000000E+03 0.  0.
       21    1    1    2  504  505  0.17541917504E+02 -0.59987248065E+02  0.15402498762E+03  0.16622239804E+03  0.00000000000E+00 0.  1.
       21    1    1    2  505  503 -0.64806540746E+02 -0.62450525484E+02 -0.97202612578E+03  0.97618376603E+03  0.00000000000E+00 0.  1.
<scales pt_clust_1="13000.00000" pt_clust_2="13000.00000" pt_clust_3="62.49951" pt_clust_4="90.06369"></scales>
<clustering>
<clus scale="   62.500">  1  5  2 -1</clus>
<clus scale="   90.064">  2  6  1 -1</clus>
<clus scale="  363.331">  1  4  2 -1</clus>
<clus scale="  363.331">  1  3  2 -1</clus>
</clustering>
</event>
<event>
 5   1  0.3464723E-02  0.5716277E+03  0.7816531E-02  0.9966083E-01
        2   -1    0    0  501    0  0.00000000000E+00  0.00000000000E+00  0.42405514037E+03  0.42405514037E+03  0.00000000000E+00 0. -1.
       21   -1    0    0  502  503  0.00000000000E+00  0.00000000000E+00 -0.15045415094E+04  0.15045415094E+04  0.00000000000E+00 0.  1.
  1000006    1    1    2  501    0  0.17201049603E+03 -0.43450812525E+03 -0.55391957041E+02  0.58647522587E+03  0.35000000000E+03 0.  0.
 -1000006    1    1    2    0  503 -0.11666261510E+03  0.41382066982E+03 -0.33136380830E+03  0.64587900258E+03  0.35000000000E+03 0.  0.
        2    1    1    2  502    0 -0.55347880923E+02  0.20687455439E+02 -0.69373060367E+03  0.69624242129E+03  0.00000000000E+00 0. -1.
<scales pt_clust_1="13000.00000" pt_clust_2="13000.00000" pt_clust_3="59.08772"></scales>
<clustering>
<clus scale="   59.088">  2  5  1 -1</clus>
<clus scale="  999.062">  3  4 -1 -1</clus>
<clus scale="  571.628">  2  3  1 -1</clus>
</clustering>
</event>
<event>
 4   0  0.3464723E-02  0.3548382E+03  0.7816531E-02  0.1060647E+00
       21   -1    0    0  501  502  0.00000000000E+00  0.00000000000E+00  0.14112946015E+04  0.14112946015E+04  0.00000000000E+00 0.  1.
       21   -1    0    0  502  503  0.00000000000E+00  0.00000000000E+00 -0.93271136215E+02  0.93271136215E+02  0.00000000000E+00 0.  1.
  1000006    1    1    2  501    0  0.51435911246E+02  0.27650043525E+02  0.81586940201E+03  0.88969267672E+03  0.35000000000E+03 0.  0.
 -1000006    1    1    2    0  503 -0.51435911246E+02 -0.27650043525E+02  0.50215406327E+03  0.61487306099E+03  0.35000000000E+03 0.  0.
<scales pt_clust_1="13000.00000" pt_clust_2="13000.00000"></scales>
<clustering>
<clus scale="  354.838">  1  3  2 -1</clus>
<clus scale="  354.838">  1  3  2 -1</clus>
</clustering>
</event>
<event>
 6   2  0.3464723E-02  0.3707263E+03  0.7816531E-02  0.1054416E+00
        2   -1    0    0  501    0  0.00000000000E+00  0.00000000000E+00  0.49395549970E+03  0.49395549970E+03  0.00000000000E+00 0.  1.
       21   -1    0    0  504  503  0.00000000000E+00  0.00000000000E+00 -0.69371038389E+03  0.69371038389E+03  0.00000000000E+00 0. -1.
  1000006    1    1    2  501    0  0.43992641841E+02 -0.10268964633E+03 -0.13784095940E+03  0.39240367746E+03  0.35000000000E+03 0.  0.
 -1000006    1    1    2    0  503 -0.10012149111E+03  0.96093192904E+02 -0.15254510485E+03  0.40623665974E+03  0.35000000000E+03 0.  0.
       21    1    1    2  504  502  0.28843312726E+02 -0.21131232809E+02 -0.14543995691E+03  0.14977064717E+03  0.00000000000E+00 0.  1.
        2    1    1    2  502    0  0.27285536542E+02  0.27727686233E+02  0.23607113696E+03  0.23925489921E+03  0.00000000000E+00 0.  1.
<scales pt_clust_1="13000.00000" pt_clust_2="13000.00000" pt_clust_3="35.75564" pt_clust_4="38.91668"></scales>
<clustering>
<clus scale="   35.756">  2  5  1 -1</clus>
<clus scale="   38.917">  1  6  2 -1</clus>
<clus scale="  370.726">  2  4  1 -1</clus>
<clus scale="  370.726">  2  3  1 -1</clus>
</clustering>
</event>
<event>
 5   1  0.3464723E-02  0.3556393E+03  0.7816531E-02  0.1060324E+00
       21   -1    0    0  501  503  0.00000000000E+00  0.00000000000E+00  0.95200183915E+03  0.95200183915E+03  0.00000000000E+00 0.  1.
       -2   -1    0    0    0  501  0.00000000000E+00  0.00000000000E+00 -0.22055146218E+03  0.22055146218E+03  0.00000000000E+00 0.  1.
  1000006    1    1    2  502    0 -0.22897771065E+02  0.30826189472E+02  0.31828765079E+03  0.47463837869E+03  0.35000000000E+03 0.  0.
 -1000006    1    1    2    0  503  0.85273310257E+02 -0.19279424516E+02  0.48346343202E+03  0.60322477050E+03  0.35000000000E+03 0.  0.
       -2    1    1    2    0  502 -0.62375539192E+02 -0.11546764957E+02 -0.70300705833E+02  0.94690152133E+02  0.00000000000E+00 0.  1.
<scales pt_clust_1="13000.00000" pt_clust_2="13000.00000" pt_clust_3="63.43529"></scales>
<clustering>
<clus scale="   63.435">  2  5  1 -1</clus>
<clus scale="  355.639">  2  3  1 -1</clus>
<clus scale="  355.639">  1  3  2 -1</clus>
</clustering>
</event>
<event>
 6   2  0.3464723E-02  0.1238942E+04  0.7816531E-02  0.9221755E-01
       21   -1    0    0  501  503  0.00000000000E+00  0.00000000000E+00  0.14442572422E+04  0.14442572422E+04  0.00000000000E+00 0.  1.
        2   -1    0    0  504    0  0.00000000000E+00  0.00000000000E+00 -0.34690498303E+04  0.34690498303E+04  0.00000000000E+00 0.  1.
  1000006    1    1    2  501    0 -0.52476277171E+03 -0.35149030882E+03  0.70269599969E+03  0.10075728618E+04  0.35000000000E+03 0.  0.
 -1000006    1    1    2    0  502 -0.16817678171E+03 -0.83310402666E+03 -0.14369754341E+03  0.93031969404E+03  0.35000000000E+03 0.  0.
       21    1    1    2  504  503 -0.86664145806E+02  0.53819406956E+02 -0.17533920159E+03  0.20285718707E+03  0.00000000000E+00 0.  1.
        2    1    1    2  502    0  0.77960369922E+03  0.11307749285E+04 -0.24084518429E+04  0.27725573296E+04  0.00000000000E+00 0.  1.
<scales pt_clust_1="13000.00000" pt_clust_2="13000.00000" pt_clust_3="102.01570" pt_clust_4="1188.47694"></scales>
<clustering>
<clus scale="  102.016">  2  5  1 -1</clus>
<clus scale="  723.818">  1  3  2 -1</clus>
<clus scale=" 1188.477">  2  6  1 -1</clus>
<clus scale=" 1238.942">  1  3  2 -1</clus>
</clustering>
</event>
<event>
 5   1  0.3464723E-02  0.3765431E+03  0.7816531E-02  0.1052219E+00
       21   -1    0    0  501  502  0.00000000000E+00  0.00000000000E+00  0.87688289612E+03  0.87688289612E+03  0.00000000000E+00 0.  1.
       21   -1    0    0  504  503  0.00000000000E+00  0.00000000000E+00 -0.23730121767E+03  0.23730121767E+03  0.00000000000E+00 0.  1.
  1000006    1    1    2  501    0 -0.14707852525E+03  0.14838659913E+02  0.56635580883E+03  0.68199060156E+03  0.35000000000E+03 0.  0.
 -1000006    1    1    2    0  503  0.11698940389E+03 -0.11123818883E+02  0.10932869623E+03  0.38504937838E+03  0.35000000000E+03 0.  0.
       21    1    1    2  504  502  0.30089121366E+02 -0.37148410300E+01 -0.36102826610E+02  0.47144133863E+02  0.00000000000E+00 0.  1.
<scales pt_clust_1="13000.00000" pt_clust_2="13000.00000" pt_clust_3="30.31757"></scales>
<clustering>
<clus scale="   30.318">  2  5  1 -1</clus>
<clus scale="  376.543">  1  3  2 -1</clus>
<clus scale="  376.543">  1  3  2 -1</clus>
</clustering>
</event>
<event>
 5   1  0.3464723E-02  0.3586378E+03  0.7816531E-02  0.1059125E+00
       21   -1    0    0  501  502  0.00000000000E+00  0.00000000000E+00  0.31252490105E+03  0.31252490105E+03  0.00000000000E+00 0. -1.
       21   -1    0    0  504  503  0.00000000000E+00  0.00000000000E+00 -0.84033767476E+03  0.84033767476E+03  0.00000000000E+00 0. -1.
  1000006    1    1    2  501    0 -0.12323683605E+02  0.81261698899E+02  0.33889454790E+02  0.36111470758E+03  0.35000000000E+03 0.  0.
 -1000006    1    1    2    0  503 -0.39588729153E+02 -0.72197817592E+02 -0.17214030648E+03  0.39863777726E+03  0.35000000000E+03 0.  0.
       21    1    1    2  504  502  0.51912412758E+02 -0.90638813075E+01 -0.38956192201E+03  0.39311009097E+03  0.00000000000E+00 0. -1.
<scales pt_clust_1="13000.00000" pt_clust_2="13000.00000" pt_clust_3="52.69775"></scales>
<clustering>
<clus scale="   52.698">  2  5  1 -1</clus>
<clus scale="  358.638">  1  3  2 -1</clus>
<clus scale="  358.638">  1  3  2 -1</clus>
</clustering>
</event>
<event>
 5   1  0.3464723E-02  0.3744301E+03  0.7816531E-02  0.1053012E+00
       21   -1    0    0  501  502  0.00000000000E+00  0.00000000000E+00  0.74550593301E+03  0.74550593301E+03  0.00000000000E+00 0.  1.
       21   -1    0    0  502  503  0.00000000000E+00  0.00000000000E+00 -0.20984635629E+03  0.20984635629E+03  0.00000000000E+00 0.  1.
  1000006    1    1    2  501    0 -0.10477271192E+02  0.12227402508E+03  0.30064667836E+03  0.47744019063E+03  0.35000000000E+03 0.  0.
 -1000006    1    1    2    0  504  0.39903323411E+02 -0.14144418838E+03  0.22548643659E+03  0.44152334789E+03  0.35000000000E+03 0.  0.
       21    1    1    2  504  503 -0.29426052218E+02  0.19170163301E+02  0.95264617644E+01  0.36388750788E+02  0.00000000000E+00 0.  1.
<scales pt_clust_1="13000.00000" pt_clust_2="13000.00000" pt_clust_3="35.11962"></scales>
<clustering>
<clus scale="   35.120">  2  5  1 -1</clus>
<clus scale="  374.430">  2  4  1 -1</clus>
<clus scale="  374.430">  1  3  2 -1</clus>
</clustering>
</event>
<event>
 5   1  0.3464723E-02  0.3624269E+03  0.7816531E-02  0.1057627E+00
       21   -1    0    0  501  502  0.00000000000E+00  0.00000000000E+00  0.20463652947E+04  0.20463652947E+04  0.00000000000E+00 0. -1.
       21   -1    0    0  504  503  0.00000000000E+00  0.00000000000E+00 -0.12684388097E+03  0.12684388097E+03  0.00000000000E+00 0. -1.
  1000006    1    1    2  501    0 -0.85761693554E+02  0.10532362122E+03  0.13312418006E+04  0.13831676922E+04  0.35000000000E+03 0.  0.
 -1000006    1    1    2    0  503  0.46941093527E+02  0.48930999702E+02  0.47877471730E+03  0.59692791769E+03  0.35000000000E+03 0.  0.
       21    1    1    2  504  502  0.38820600027E+02 -0.15425462092E+03  0.10950489591E+03  0.19311356578E+03  0.00000000000E+00 0. -1.
<scales pt_clust_1="13000.00000" pt_clust_2="13000.00000" pt_clust_3="159.06454"></scales>
<clustering>
<clus scale="  159.065">  2  5  1 -1</clus>
<clus scale="  362.427">  2  4  1 -1</clus>
<clus scale="  362.427">  1  3  2 -1</clus>
</clustering>
</event>
<event>
 4   0  0.3464723E-02  0.3768248E+03  0.7816531E-02  0.1052114E+00
       21   -1    0    0  503  502  0.00000000000E+00  0.00000000000E+00  0.14960523606E+03  0.14960523606E+03  0.00000000000E+00 0.  1.
       21   -1    0    0  501  503  0.00000000000E+00  0.00000000000E+00 -0.96789802700E+03  0.96789802700E+03  0.00000000000E+00 0.  1.
  1000006    1    1    2  501    0  0.11828278196E+03 -0.74202941326E+02 -0.48692367599E+03  0.61570411664E+03  0.35000000000E+03 0.  0.
 -1000006    1    1    2    0  502 -0.11828278196E+03  0.74202941326E+02 -0.33136911494E+03  0.50179914642E+03  0.35000000000E+03 0.  0.
<scales pt_clust_1="13000.00000" pt_clust_2="13000.00000"></scales>
<clustering>
<clus scale="  376.825">  2  3  1 -1</clus>
<clus scale="  376.825">  1  3  2 -1</clus>
</clustering>
</event>
<event>
 4   0  0.3464723E-02  0.4878249E+03  0.7816531E-02  0.1017007E+00
       21   -1    0    0  503  502  0.00000000000E+00  0.00000000000E+00  0.17491777033E+04  0.17491777033E+04  0.00000000000E+00 0. -1.
       21   -1    0    0  501  503  0.00000000000E+00  0.00000000000E+00 -0.14413813578E+03  0.14413813578E+03  0.00000000000E+00 0.  1.
  1000006    1    1    2  501    0  0.24260182362E+03 -0.23794426444E+03  0.57825228402E+03  0.75653738954E+03  0.35000000000E+03 0.  0.
 -1000006    1    1    2    0  502 -0.24260182362E+03  0.23794426444E+03  0.10267872835E+04  0.11367784496E+04  0.35000000000E+03 0.  0.
<scales pt_clust_1="13000.00000" pt_clust_2="13000.00000"></scales>
<clustering>
<clus scale="  487.825">  2  3  1 -1</clus>
<clus scale="  487.825">  1  3  2 -1</clus>
</clustering>
</event>
<event>
 6   2  0.3464723E-02  0.3672570E+03  0.7816531E-02  0.1055747E+00
       21   -1    0    0  503  502  0.00000000000E+00  0.00000000000E+00  0.48171720407E+03  0.48171720407E+03  0.00000000000E+00 0. -1.
       21   -1    0    0  504  503  0.00000000000E+00  0.00000000000E+00 -0.47096919132E+03  0.47096919132E+03  0.00000000000E+00 0. -1.
  1000006    1    1    2  501    0  0.12304898468E+02 -0.96045543505E+02 -0.89050882422E+02  0.37390669506E+03  0.35000000000E+03 0.  0.
 -1000006    1    1    2    0  505 -0.32303949249E+02  0.10389001516E+03  0.82123681517E+02  0.37560748056E+03  0.35000000000E+03 0.  0.
       21    1    1    2  504  501 -0.50342083963E+01 -0.51004772060E+02 -0.79122490424E+02  0.94271939187E+02  0.00000000000E+00 0. -1.
       21    1    1    2  505  502  0.25033259177E+02  0.43160300401E+02  0.96797704072E+02  0.10890028058E+03  0.00000000000E+00 0. -1.
<scales pt_clust_1="13000.00000" pt_clust_2="13000.00000" pt_clust_3="50.34641" pt_clust_4="49.89464"></scales>
<clustering>
<clus scale="   49.895">  1  6  2 -1</clus>
<clus scale="   50.346">  2  5  1 -1</clus>
<clus scale="  367.257">  2  3  1 -1</clus>
<clus scale="  367.257">  1  3  2 -1</clus>
</clustering>
</event>
<event>
 4   0  0.3464723E-02  0.4167549E+03  0.7816531E-02  0.1038128E+00
       21   -1    0    0  503  502  0.00000000000E+00  0.00000000000E+00  0.14631497049E+04  0.14631497049E+04  0.00000000000E+00 0.  1.
       21   -1    0    0  501  503  0.00000000000E+00  0.00000000000E+00 -0.12735014508E+03  0.12735014508E+03  0.00000000000E+00 0. -1.
  1000006    1    1    2  501    0  0.16246589047E+03 -0.15744676289E+03  0.46071161630E+03  0.62124056701E+03  0.35000000000E+03 0.  0.
 -1000006    1    1    2    0  502 -0.16246589047E+03  0.15744676289E+03  0.87508794351E+03  0.96925928295E+03  0.35000000000E+03 0.  0.
<scales pt_clust_1="13000.00000" pt_clust_2="13000.00000"></scales>
<clustering>
<clus scale="  416.755">  2  3  1 -1</clus>
<clus scale="  416.755">  1  3  2 -1</clus>
</clustering>
</event>
<event>
 4   0  0.3464723E-02  0.3781639E+03  0.7816531E-02  0.1051614E+00
       21   -1    0    0  503  502  0.00000000000E+00  0.00000000000E+00  0.93057633343E+03  0.93057633343E+03  0.00000000000E+00 0. -1.
       21   -1    0    0  501  503  0.00000000000E+00  0.00000000000E+00 -0.34664233254E+03  0.34664233254E+03  0.00000000000E+00 0. -1.
  1000006    1    1    2  501    0  0.84998707879E+02  0.11525245862E+03 -0.18450176302E+03  0.42077168407E+03  0.35000000000E+03 0.  0.
 -1000006    1    1    2    0  502 -0.84998707879E+02 -0.11525245862E+03  0.76843576390E+03  0.85644698190E+03  0.35000000000E+03 0.  0.
<scales pt_clust_1="13000.00000" pt_clust_2="13000.00000"></scales>
<clustering>
<clus scale="  378.164">  2  3  1 -1</clus>
<clus scale="  378.164">  1  3  2 -1</clus>
</clustering>
</event>
<event>
 5   1  0.3464723E-02  0.4629352E+03  0.7816531E-02  0.1023933E+00
       21   -1    0    0  503  502  0.00000000000E+00  0.00000000000E+00  0.23793641634E+04  0.23793641634E+04  0.00000000000E+00 0. -1.
       21   -1    0    0  504  503  0.00000000000E+00  0.00000000000E+00 -0.60560296545E+03  0.60560296545E+03  0.00000000000E+00 0.  1.
  1000006    1    1    2  501    0 -0.39121392998E+03  0.21984560169E+03  0.14906785590E+04  0.15956199403E+04  0.35000000000E+03 0.  0.
 -1000006    1    1    2    0  502  0.88626744035E+02 -0.16242479577E+03  0.73945848936E+03  0.83877015417E+03  0.35000000000E+03 0.  0.
       21    1    1    2  504  501  0.30258718595E+03 -0.57420805922E+02 -0.45637585037E+03  0.55057703444E+03  0.00000000000E+00 0.  1.
<scales pt_clust_1="13000.00000" pt_clust_2="13000.00000" pt_clust_3="307.98726"></scales>
<clustering>
<clus scale="  307.987">  2  5  1 -1</clus>
<clus scale="  462.935">  2  3  1 -1</clus>
<clus scale="  462.935">  1  3  2 -1</clus>
</clustering>
</event>
<event>
 5   1  0.3464723E-02  0.5016090E+03  0.7816531E-02  0.1013360E+00
       21   -1    0    0  502  503  0.00000000000E+00  0.00000000000E+00  0.17848345055E+03  0.17848345055E+03  0.00000000000E+00 0. -1.
        2   -1    0    0  501    0  0.00000000000E+00  0.00000000000E+00 -0.17563625413E+04  0.17563625413E+04  0.00000000000E+00 0.  1.
  1000006    1    1    2  501    0  0.32103375971E+03  0.15977881377E+03 -0.45985675278E+03  0.68011776721E+03  0.35000000000E+03 0.  0.
 -1000006    1    1    2    0  503 -0.34677829827E+03 -0.10244097365E+03 -0.10323242246E+04  0.11484522828E+04  0.35000000000E+03 0.  0.
        2    1    1    2  502    0  0.25744538562E+02 -0.57337840123E+02 -0.85698113420E+02  0.10627594187E+03  0.00000000000E+00 0.  1.
<scales pt_clust_1="13000.00000" pt_clust_2="13000.00000" pt_clust_3="62.85228"></scales>
<clustering>
<clus scale="   62.852">  1  5  2 -1</clus>
<clus scale="  863.489">  3  4 -1 -1</clus>
<clus scale="  501.609">  1  3  2 -1</clus>
</clustering>
</event>
<event>
 6   2  0.3464723E-02  0.3810007E+03  0.7816531E-02  0.1050565E+00
       21   -1    0    0  501  502  0.00000000000E+00  0.00000000000E+00  0.24999198312E+04  0.24999198312E+04  0.00000000000E+00 0.  1.
       21   -1    0    0  505  503  0.00000000000E+00  0.00000000000E+00 -0.20885400236E+03  0.20885400236E+03  0.00000000000E+00 0.  1.
  1000006    1    1    2  501    0  0.78882867009E+02 -0.10076484633E+03  0.15235637599E+04  0.15684777944E+04  0.35000000000E+03 0.  0.
 -1000006    1    1    2    0  504 -0.29726398622E+03 -0.10171529612E+02  0.66253230008E+03  0.80617515849E+03  0.35000000000E+03 0.  0.
       21    1    1    2  504  503  0.20124166114E+03  0.14228469067E+00  0.91957104581E+02  0.22125626659E+03  0.00000000000E+00 0.  1.
       21    1    1    2  505  502  0.17139458071E+02  0.11079409126E+03  0.13012664239E+02  0.11286461408E+03  0.00000000000E+00 0.  1.
<scales pt_clust_1="13000.00000" pt_clust_2="13000.00000" pt_clust_3="213.06585" pt_clust_4="112.11196"></scales>
<clustering>
<clus scale="  112.112">  2  6  1 -1</clus>
<clus scale="  213.066">  2  5  1 -1</clus>
<clus scale="  381.001">  2  4  1 -1</clus>
<clus scale="  381.001">  1  3  2 -1</clus>
</clustering>
</event>
<event>
 4   0  0.3464723E-02  0.3777692E+03  0.7816531E-02  0.1051761E+00
       21   -1    0    0  503  502  0.00000000000E+00  0.00000000000E+00  0.67754900820E+02  0.67754900820E+02  0.00000000000E+00 0.  1.
       21   -1    0    0  501  503  0.00000000000E+00  0.00000000000E+00 -0.21175134262E+04  0.21175134262E+04  0.00000000000E+00 0.  1.
  1000006    1    1    2  501    0  0.13710325316E+03  0.37580118631E+02 -0.11045258302E+04  0.11673417995E+04  0.35000000000E+03 0.  0.
 -1000006    1    1    2    0  502 -0.13710325316E+03 -0.37580118631E+02 -0.94523269522E+03  0.10179265275E+04  0.35000000000E+03 0.  0.
<scales pt_clust_1="13000.00000" pt_clust_2="13000.00000"></scales>
<clustering>
<clus scale="  377.769">  2  3  1 -1</clus>
<clus scale="  377.769">  1  3  2 -1</clus>
</clustering>
</event>
<event>
 6   2  0.3464723E-02  0.4697402E+03  0.7816531E-02  0.1021994E+00
       -2   -1    0    0    0  501  0.00000000000E+00  0.00000000000E+00  0.60818344662E+03  0.60818344662E+03  0.00000000000E+00 0. -1.
        2   -1    0    0  503    0  0.00000000000E+00  0.00000000000E+00 -0.69472879822E+03  0.69472879822E+03  0.00000000000E+00 0.  1.
  1000006    1    1    2  502    0  0.18402885307E+03  0.13206314806E+03 -0.18668999233E+02  0.41731981186E+03  0.35000000000E+03 0.  0.
 -1000006    1    1    2    0  504 -0.22186515090E+03 -0.36899281896E+03 -0.77397619847E+02  0.56024123124E+03  0.35000000000E+03 0.  0.
       21    1    1    2  503  502 -0.37768972703E+02  0.18941340680E+03 -0.70340247861E+02  0.20555214532E+03  0.00000000000E+00 0. -1.
       21    1    1    2  504  501  0.75605270528E+02  0.47516264099E+02  0.79861515347E+02  0.11979905642E+03  0.00000000000E+00 0.  1.
<scales pt_clust_1="13000.00000" pt_clust_2="13000.00000" pt_clust_3="197.68492" pt_clust_4="89.29699"></scales>
<clustering>
<clus scale="   89.297">  1  6  2 -1</clus>
<clus scale="  197.685">  2  5  1 -1</clus>
<clus scale="  722.032">  3  4 -1 -1</clus>
<clus scale="  469.740">  2  3  1 -1</clus>
</clustering>
</event>
<event>
 4   0  0.3464723E-02  0.4157664E+03  0.7816531E-02  0.1038453E+00
       21   -1    0    0  503  502  0.00000000000E+00  0.00000000000E+00  0.13334089708E+04  0.13334089708E+04  0.00000000000E+00 0. -1.
       21   -1    0    0  501  503  0.00000000000E+00  0.00000000000E+00 -0.13882368612E+03  0.13882368612E+03  0.00000000000E+00 0. -1.
  1000006    1    1    2  501    0 -0.21350437350E+03 -0.69119958605E+02  0.40794977838E+03  0.58248150860E+03  0.35000000000E+03 0.  0.
 -1000006    1    1    2    0  502  0.21350437350E+03  0.69119958605E+02  0.78663550630E+03  0.88975114833E+03  0.35000000000E+03 0.  0.
<scales pt_clust_1="13000.00000" pt_clust_2="13000.00000"></scales>
<clustering>
<clus scale="  415.766">  2  3  1 -1</clus>
<clus scale="  415.766">  1  3  2 -1</clus>
</clustering>
</event>
<event>
 4   0  0.3464723E-02  0.3757212E+03  0.7816531E-02  0.1052527E+00
       21   -1    0    0  501  502  0.00000000000E+00  0.00000000000E+00  0.67146319834E+03  0.67146319834E+03  0.00000000000E+00 0. -1.
       21   -1    0    0  502  503  0.00000000000E+00  0.00000000000E+00 -0.22942644651E+03  0.22942644651E+03  0.00000000000E+00 0. -1.
  1000006    1    1    2  501    0  0.12486271777E+03  0.55459122564E+02  0.35129035609E+03  0.51436497436E+03  0.35000000000E+03 0.  0.
 -1000006    1    1    2    0  503 -0.12486271777E+03 -0.55459122564E+02  0.90746395740E+02  0.38652467050E+03  0.35000000000E+03 0.  0.
<scales pt_clust_1="13000.00000" pt_clust_2="13000.00000"></scales>
<clustering>
<clus scale="  375.721">  1  3  2 -1</clus>
<clus scale="  375.721">  1  3  2 -1</clus>
</clustering>
</event>
<event>
 4   0  0.3464723E-02  0.5250405E+03  0.7816531E-02  0.1007442E+00
       21   -1    0    0  503  502  0.00000000000E+00  0.00000000000E+00  0.18327820527E+04  0.18327820527E+04  0.00000000000E+00 0. -1.
       21   -1    0    0  501  503  0.00000000000E+00  0.00000000000E+00 -0.24709634884E+03  0.24709634884E+03  0.00000000000E+00 0.  1.
  1000006    1    1    2  501    0  0.32767987574E+03  0.21399387392E+03  0.14232544666E+03  0.54398898133E+03  0.35000000000E+03 0.  0.
 -1000006    1    1    2    0  502 -0.32767987574E+03 -0.21399387392E+03  0.14433602572E+04  0.15358894202E+04  0.35000000000E+03 0.  0.
<scales pt_clust_1="13000.00000" pt_clust_2="13000.00000"></scales>
<clustering>
<clus scale="  525.040">  2  3  1 -1</clus>
<clus scale="  525.040">  1  3  2 -1</clus>
</clustering>
</event>
<event>
 5   1  0.3464723E-02  0.3915666E+03  0.7816531E-02  0.1046740E+00
        2   -1    0    0  501    0  0.00000000000E+00  0.00000000000E+00  0.16358107003E+04  0.16358107003E+04  0.00000000000E+00 0.  1.
       21   -1    0    0  502  503  0.00000000000E+00  0.00000000000E+00 -0.45203219729E+03  0.45203219729E+03  0.00000000000E+00 0. -1.
  1000006    1    1    2  501    0 -0.70600170262E+02  0.20712816489E+03  0.36999770622E+02  0.41443388346E+03  0.35000000000E+03 0.  0.
 -1000006    1    1    2    0  503  0.92507242574E+02 -0.14285218129E+03  0.13782698158E+04  0.14321634058E+04  0.35000000000E+03 0.  0.
        2    1    1    2  502    0 -0.21907072312E+02 -0.64275983594E+02 -0.23149108339E+03  0.24124560841E+03  0.00000000000E+00 0.  1.
<scales pt_clust_1="13000.00000" pt_clust_2="13000.00000" pt_clust_3="67.90671"></scales>
<clustering>
<clus scale="   67.907">  2  5  1 -1</clus>
<clus scale=" 1017.262">  3  4 -1 -1</clus>
<clus scale="  391.567">  2  3  1 -1</clus>
</clustering>
</event>
<event>
 5   1  0.3464723E-02  0.4903060E+03  0.7816531E-02  0.1016341E+00
       21   -1    0    0  501  502  0.00000000000E+00  0.00000000000E+00  0.19228019397E+04  0.19228019397E+04  0.00000000000E+00 0.  1.
       21   -1    0    0  504  503  0.00000000000E+00  0.00000000000E+00 -0.21735138824E+03  0.21735138824E+03  0.00000000000E+00 0. -1.
  1000006    1    1    2  501    0 -0.26749585197E+03  0.23176531224E+03  0.12921436621E+04  0.13847037352E+04  0.35000000000E+03 0.  0.
 -1000006    1    1    2    0  503  0.24685162333E+03 -0.20553797741E+03  0.48343481793E+03  0.67778374670E+03  0.35000000000E+03 0.  0.
       21    1    1    2  504  502  0.20644228634E+02 -0.26227334826E+02 -0.70127928599E+02  0.77665846017E+02  0.00000000000E+00 0.  1.
<scales pt_clust_1="13000.00000" pt_clust_2="13000.00000" pt_clust_3="33.37750"></scales>
<clustering>
<clus scale="   33.377">  2  5  1 -1</clus>
<clus scale="  490.306">  2  4  1 -1</clus>
<clus scale="  490.306">  1  3  2 -1</clus>
</clustering>
</event>
<event>
 5   1  0.3464723E-02  0.5421262E+03  0.7816531E-02  0.1003333E+00
       21   -1    0    0  501  502  0.00000000000E+00  0.00000000000E+00  0.84463172672E+03  0.84463172672E+03  0.00000000000E+00 0. -1.
       21   -1    0    0  502  503  0.00000000000E+00  0.00000000000E+00 -0.60858454210E+03  0.60858454210E+03  0.00000000000E+00 0.  1.
  1000006    1    1    2  501    0 -0.67196914769E+02 -0.42141360073E+03  0.31577769801E+03  0.63586193690E+03  0.35000000000E+03 0.  0.
 -1000006    1    1    2    0  504 -0.59280460787E+02  0.40411114126E+03  0.14660068167E+03  0.55750493037E+03  0.35000000000E+03 0.  0.
       21    1    1    2  504  503  0.12647737556E+03  0.17302459475E+02 -0.22633119506E+03  0.25984940156E+03  0.00000000000E+00 0.  1.
<scales pt_clust_1="13000.00000" pt_clust_2="13000.00000" pt_clust_3="127.65540"></scales>
<clustering>
<clus scale="  127.655">  2  5  1 -1</clus>
<clus scale="  542.126">  1  3  2 -1</clus>
<clus scale="  542.126">  1  3  2 -1</clus>
</clustering>
</event>
<event>
 6   2  0.3464723E-02  0.3630527E+03  0.7816531E-02  0.1057382E+00
       21   -1    0    0  501  502  0.00000000000E+00  0.00000000000E+00  0.23525066788E+03  0.23525066788E+03  0.00000000000E+00 0. -1.
       21   -1    0    0  504  503  0.00000000000E+00  0.00000000000E+00 -0.90924463610E+03  0.90924463610E+03  0.00000000000E+00 0. -1.
  1000006    1    1    2  501    0 -0.85855698829E+02 -0.85608210207E+02 -0.18110515442E+03  0.41230940280E+03  0.35000000000E+03 0.  0.
 -1000006    1    1    2    0  505  0.73169951061E+02  0.22476892466E+02 -0.20038543759E+03  0.41050380757E+03  0.35000000000E+03 0.  0.
       21    1    1    2  504  502 -0.24326862101E+02  0.45037122399E+02 -0.37706845768E+02  0.63576291426E+02  0.00000000000E+00 0.  1.
       21    1    1    2  505  503  0.37012609869E+02  0.18094195341E+02 -0.25479653044E+03  0.25810580218E+03  0.00000000000E+00 0.  1.
<scales pt_clust_1="13000.00000" pt_clust_2="13000.00000" pt_clust_3="51.15750" pt_clust_4="41.19870"></scales>
<clustering>
<clus scale="   41.199">  2  6  1 -1</clus>
<clus scale="   51.157">  2  5  1 -1</clus>
<clus scale="  363.053">  1  3  2 -1</clus>
<clus scale="  363.053">  1  3  2 -1</clus>
</clustering>
</event>
<event>
 4   0  0.3464723E-02  0.4138442E+03  0.7816531E-02  0.1039089E+00
       21   -1    0    0  503  502  0.00000000000E+00  0.00000000000E+00  0.45850072584E+03  0.45850072584E+03  0.00000000000E+00 0.  1.
       21   -1    0    0  501  503  0.00000000000E+00  0.00000000000E+00 -0.55627894609E+03  0.55627894609E+03  0.00000000000E+00 0.  1.
  1000006    1    1    2  501    0 -0.19789982280E+03  0.97993192909E+02 -0.33970258270E+03  0.53541091735E+03  0.35000000000E+03 0.  0.
 -1000006    1    1    2    0  502  0.19789982280E+03 -0.97993192909E+02  0.24192436245E+03  0.47936875458E+03  0.35000000000E+03 0.  0.
<scales pt_clust_1="13000.00000" pt_clust_2="13000.00000"></scales>
<clustering>
<clus scale="  413.844">  2  3  1 -1</clus>
<clus scale="  413.844">  1  3  2 -1</clus>
</clustering>
</event>
<event>
 4   0  0.3464723E-02  0.3609318E+03  0.7816531E-02  0.1058216E+00
       21   -1    0    0  501  502  0.00000000000E+00  0.00000000000E+00  0.77008237698E+03  0.77008237698E+03  0.00000000000E+00 0.  1.
       21   -1    0    0  502  503  0.00000000000E+00  0.00000000000E+00 -0.18194683812E+03  0.18194683812E+03  0.00000000000E+00 0.  1.
  1000006    1    1    2  501    0  0.25660907593E+02  0.84340275954E+02  0.42022945817E+03  0.55395357372E+03  0.35000000000E+03 0.  0.
 -1000006    1    1    2    0  503 -0.25660907593E+02 -0.84340275954E+02  0.16790608069E+03  0.39807564138E+03  0.35000000000E+03 0.  0.
<scales pt_clust_1="13000.00000" pt_clust_2="13000.00000"></scales>
<clustering>
<clus scale="  360.932">  1  3  2 -1</clus>
<clus scale="  360.932">  1  3  2 -1</clus>
</clustering>
</event>
<event>
 6   2  0.3464723E-02  0.4169629E+03  0.7816531E-02  0.1038059E+00
       21   -1    0    0  503  502  0.00000000000E+00  0.00000000000E+00  0.21539922133E+04  0.21539922133E+04  0.00000000000E+00 0. -1.
       21   -1    0    0  504  503  0.00000000000E+00  0.00000000000E+00 -0.25342311945E+03  0.25342311945E+03  0.00000000000E+00 0.  1.
  1000006    1    1    2  501    0 -0.56765162196E+02 -0.19952733297E+03  0.27424381719E+03  0.49065579738E+03  0.35000000000E+03 0.  0.
 -1000006    1    1    2    0  505  0.12636031341E+03  0.21710471587E+03  0.79121161440E+03  0.90089799934E+03  0.35000000000E+03 0.  0.
       21    1    1    2  504  501  0.55462169848E+02 -0.39295354265E+02 -0.72520443349E+02  0.99395129934E+02  0.00000000000E+00 0.  1.
       21    1    1    2  505  502 -0.12505732107E+03  0.21717971364E+02  0.90763410566E+03  0.91646640614E+03  0.00000000000E+00 0. -1.
<scales pt_clust_1="13000.00000" pt_clust_2="13000.00000" pt_clust_3="67.97189" pt_clust_4="125.31320"></scales>
<clustering>
<clus scale="   67.972">  2  5  1 -1</clus>
<clus scale="  125.313">  1  6  2 -1</clus>
<clus scale="  416.963">  2  3  1 -1</clus>
<clus scale="  416.963">  1  3  2 -1</clus>
</clustering>
</event>
<event>
 5   1  0.3464723E-02  0.4909523E+03  0.7816531E-02  0.1016168E+00
       21   -1    0    0  501  502  0.00000000000E+00  0.00000000000E+00  0.54427727248E+03  0.54427727248E+03  0.00000000000E+00 0.  1.
       21   -1    0    0  504  503  0.00000000000E+00  0.00000000000E+00 -0.78851964291E+03  0.78851964291E+03  0.00000000000E+00 0. -1.
  1000006    1    1    2  501    0  0.32679875735E+03 -0.15405055941E+03 -0.84631320811E+02  0.51008966184E+03  0.35000000000E+03 0.  0.
 -1000006    1    1    2    0  503 -0.33432934779E+03  0.57082967306E+02 -0.35600398172E+03  0.60355067141E+03  0.35000000000E+03 0.  0.
       21    1    1    2  504  502  0.75305904434E+01  0.96967592099E+02  0.19639293211E+03  0.21915658213E+03  0.00000000000E+00 0.  1.
<scales pt_clust_1="13000.00000" pt_clust_2="13000.00000" pt_clust_3="97.25957"></scales>
<clustering>
<clus scale="   97.260">  1  5  2 -1</clus>
<clus scale="  490.952">  2  4  1 -1</clus>
<clus scale="  490.952">  1  3  2 -1</clus>
</clustering>
</event>
<event>
 6   2  0.3464723E-02  0.3679473E+03  0.7816531E-02  0.1055481E+00
       21   -1    0    0  505  502  0.00000000000E+00  0.00000000000E+00  0.43577505931E+03  0.43577505931E+03  0.00000000000E+00 0. -1.
       21   -1    0    0  501  503  0.00000000000E+00  0.00000000000E+00 -0.11195297992E+04  0.11195297992E+04  0.00000000000E+00 0. -1.
  1000006    1    1    2  501    0  0.88656058038E+02 -0.56330197682E+02 -0.35153135779E+03  0.50705747535E+03  0.35000000000E+03 0.  0.
 -1000006    1    1    2    0  504 -0.13533597400E+03  0.12565879750E+02 -0.29240693121E+03  0.47589446373E+03  0.35000000000E+03 0.  0.
       21    1    1    2  504  502  0.46438038556E+02 -0.63611969479E+02  0.25061951757E+03  0.26270347670E+03  0.00000000000E+00 0. -1.
       21    1    1    2  505  503  0.24187740598E+00  0.10737628741E+03 -0.29043596842E+03  0.30964944268E+03  0.00000000000E+00 0. -1.
<scales pt_clust_1="13000.00000" pt_clust_2="13000.00000" pt_clust_3="78.75896" pt_clust_4="104.00037"></scales>
<clustering>
<clus scale="   78.759">  1  5  2 -1</clus>
<clus scale="  104.000">  2  6  1 -1</clus>
<clus scale="  367.947">  2  3  1 -1</clus>
<clus scale="  367.947">  1  3  2 -1</clus>
</clustering>
</event>
<event>
 4   0  0.3464723E-02  0.4575705E+03  0.7816531E-02  0.1025488E+00
       21   -1    0    0  503  502  0.00000000000E+00  0.00000000000E+00  0.16838740505E+03  0.16838740505E+03  0.00000000000E+00 0.  1.
       21   -1    0    0  501  503  0.00000000000E+00  0.00000000000E+00 -0.12440179878E+04  0.12440179878E+04  0.00000000000E+00 0.  1.
  1000006    1    1    2  501    0 -0.82112659358E+01 -0.29462407322E+03 -0.55371561291E+03  0.71831173552E+03  0.35000000000E+03 0.  0.
 -1000006    1    1    2    0  502  0.82112659358E+01  0.29462407322E+03 -0.52191496984E+03  0.69409365733E+03  0.35000000000E+03 0.  0.
<scales pt_clust_1="13000.00000" pt_clust_2="13000.00000"></scales>
<clustering>
<clus scale="  457.571">  2  3  1 -1</clus>
<clus scale="  457.571">  1  3  2 -1</clus>
</clustering>
</event>
<event>
 4   0  0.3464723E-02  0.5176585E+03  0.7816531E-02  0.1009270E+00
       21   -1    0    0  501  502  0.00000000000E+00  0.00000000000E+00  0.11338953007E+03  0.11338953007E+03  0.00000000000E+00 0.  1.
       21   -1    0    0  502  503  0.00000000000E+00  0.00000000000E+00 -0.25480930169E+04  0.25480930169E+04  0.00000000000E+00 0.  1.
  1000006    1    1    2  501    0 -0.32848432909E+03 -0.19382565558E+03 -0.85895729400E+03  0.10028848250E+04  0.35000000000E+03 0.  0.
 -1000006    1    1    2    0  503  0.32848432909E+03  0.19382565558E+03 -0.15757461929E+04  0.16585977220E+04  0.35000000000E+03 0.  0.
<scales pt_clust_1="13000.00000" pt_clust_2="13000.00000"></scales>
<clustering>
<clus scale="  517.659">  1  3  2 -1</clus>
<clus scale="  517.659">  1  3  2 -1</clus>
</clustering>
</event>
<event>
 6   2  0.3464723E-02  0.3759937E+03  0.7816531E-02  0.1052424E+00
       21   -1    0    0  505  502  0.00000000000E+00  0.00000000000E+00  0.63964408526E+03  0.63964408526E+03  0.00000000000E+00 0. -1.
       21   -1    0    0  504  503  0.00000000000E+00  0.00000000000E+00 -0.49350977279E+03  0.49350977279E+03  0.00000000000E+00 0. -1.
  1000006    1    1    2  501    0 -0.16397672706E+03  0.18824501360E+02 -0.17633245179E+03  0.42524800108E+03  0.35000000000E+03 0.  0.
 -1000006    1    1    2    0  502  0.10800040704E+03 -0.58109908796E+02  0.40914903291E+03  0.55221714982E+03  0.35000000000E+03 0.  0.
       21    1    1    2  504  501  0.34359950458E+02  0.17247297067E+02 -0.11030785297E+03  0.11681565768E+03  0.00000000000E+00 0. -1.
       21    1    1    2  505  503  0.21616369562E+02  0.22038110369E+02  0.23625584317E+02  0.38873049482E+02  0.00000000000E+00 0.  1.
<scales pt_clust_1="13000.00000" pt_clust_2="13000.00000" pt_clust_3="38.60199" pt_clust_4="30.86982"></scales>
<clustering>
<clus scale="   30.870">  1  6  2 -1</clus>
<clus scale="   38.602">  2  5  1 -1</clus>
<clus scale="  375.994">  2  3  1 -1</clus>
<clus scale="  375.994">  1  3  2 -1</clus>
</clustering>
</event>
<event>
 4   0  0.3464723E-02  0.3576374E+03  0.7816531E-02  0.1059523E+00
       21   -1    0    0  503  502  0.00000000000E+00  0.00000000000E+00  0.13983119143E+04  0.13983119143E+04  0.00000000000E+00 0.  1.
       21   -1    0    0  501  503  0.00000000000E+00  0.00000000000E+00 -0.92594906399E+02  0.92594906399E+02  0.00000000000E+00 0.  1.
  1000006    1    1    2  501    0 -0.27683253141E+02 -0.68103909881E+02  0.57071770859E+03  0.67351555880E+03  0.35000000000E+03 0.  0.
 -1000006    1    1    2    0  502  0.27683253141E+02  0.68103909881E+02  0.73499929932E+03  0.81739126191E+03  0.35000000000E+03 0.  0.
<scales pt_clust_1="13000.00000" pt_clust_2="13000.00000"></scales>
<clustering>
<clus scale="  357.637">  2  3  1 -1</clus>
<clus scale="  357.637">  1  3  2 -1</clus>
</clustering>
</event>
<event>
 4   0  0.3464723E-02  0.3821152E+03  0.7816531E-02  0.1050155E+00
       21   -1    0    0  501  502  0.00000000000E+00  0.00000000000E+00  0.51170282895E+03  0.51170282895E+03  0.00000000000E+00 0. -1.
       21   -1    0    0  502  503  0.00000000000E+00  0.00000000000E+00 -0.30428391554E+03  0.30428391554E+03  0.00000000000E+00 0. -1.
  1000006    1    1    2  501    0 -0.76947355241E+02 -0.13263160945E+03  0.20549515992E+03  0.43386668466E+03  0.35000000000E+03 0.  0.
 -1000006    1    1    2    0  503  0.76947355241E+02  0.13263160945E+03  0.19237534954E+01  0.38212005984E+03  0.35000000000E+03 0.  0.
<scales pt_clust_1="13000.00000" pt_clust_2="13000.00000"></scales>
<clustering>
<clus scale="  382.115">  1  3  2 -1</clus>
<clus scale="  382.115">  1  3  2 -1</clus>
</clustering>
</event>
<event>
 5   1  0.3464723E-02  0.3679577E+03  0.7816531E-02  0.1055477E+00
       21   -1    0    0  504  502  0.00000000000E+00  0.00000000000E+00  0.42090963419E+03  0.42090963419E+03  0.00000000000E+00 0. -1.
       21   -1    0    0  502  503  0.00000000000E+00  0.00000000000E+00 -0.56031711312E+03  0.56031711312E+03  0.00000000000E+00 0. -1.
  1000006    1    1    2  501    0  0.43229188266E+02  0.83119004685E+02  0.96373931701E+01  0.36245056353E+03  0.35000000000E+03 0.  0.
 -1000006    1    1    2    0  503 -0.64931557715E+02 -0.10476119995E+03 -0.29224510065E+03  0.47233273765E+03  0.35000000000E+03 0.  0.
       21    1    1    2  504  501  0.21702369449E+02  0.21642195268E+02  0.14320022856E+03  0.14644344613E+03  0.00000000000E+00 0. -1.
<scales pt_clust_1="13000.00000" pt_clust_2="13000.00000" pt_clust_3="30.64927"></scales>
<clustering>
<clus scale="   30.649">  1  5  2 -1</clus>
<clus scale="  367.958">  1  3  2 -1</clus>
<clus scale="  367.958">  1  3  2 -1</clus>
</clustering>
</event>
<event>
 4   0  0.3464723E-02  0.5315797E+03  0.7816531E-02  0.1005850E+00
       -1   -1    0    0    0  501  0.00000000000E+00  0.00000000000E+00  0.20506506673E+03  0.20506506673E+03  0.00000000000E+00 0.  1.
        1   -1    0    0  502    0  0.00000000000E+00  0.00000000000E+00 -0.14032178413E+04  0.14032178413E+04  0.00000000000E+00 0. -1.
  1000006    1    1    2  502    0  0.20617807085E+03  0.34288134441E+03 -0.70690525610E+03  0.88447275500E+03  0.35000000000E+03 0.  0.
 -1000006    1    1    2    0  501 -0.20617807085E+03 -0.34288134441E+03 -0.49124751851E+03  0.72381015306E+03  0.35000000000E+03 0.  0.
<scales pt_clust_1="13000.00000" pt_clust_2="13000.00000"></scales>
<clustering>
<clus scale="  885.158">  3  4 -1 -1</clus>
<clus scale="  531.580">  2  3  1 -1</clus>
</clustering>
</event>
<event>
 5   1  0.3464723E-02  0.3780997E+03  0.7816531E-02  0.1051638E+00
       21   -1    0    0  504  502  0.00000000000E+00  0.00000000000E+00  0.25585371481E+03  0.25585371481E+03  0.00000000000E+00 0. -1.
       21   -1    0    0  501  503  0.00000000000E+00  0.00000000000E+00 -0.89549590457E+03  0.89549590457E+03  0.00000000000E+00 0. -1.
  1000006    1    1    2  501    0 -0.63972456104E+02 -0.12153910472E+03 -0.62437222794E+03  0.72883805343E+03  0.35000000000E+03 0.  0.
 -1000006    1    1    2    0  502  0.91874038816E+02  0.13486907052E+03 -0.31740436924E+02  0.38747639996E+03  0.35000000000E+03 0.  0.
       21    1    1    2  504  503 -0.27901582712E+02 -0.13329965800E+02  0.16470475099E+02  0.35035165992E+02  0.00000000000E+00 0. -1.
<scales pt_clust_1="13000.00000" pt_clust_2="13000.00000" pt_clust_3="30.92226"></scales>
<clustering>
<clus scale="   30.922">  1  5  2 -1</clus>
<clus scale="  378.100">  2  3  1 -1</clus>
<clus scale="  378.100">  1  3  2 -1</clus>
</clustering>
</event>
<event>
 6   2  0.3464723E-02  0.4156483E+03  0.7816531E-02  0.1038492E+00
       21   -1    0    0  501  502  0.00000000000E+00  0.00000000000E+00  0.18230635882E+04  0.18230635882E+04  0.00000000000E+00 0. -1.
       21   -1    0    0  504  503  0.00000000000E+00  0.00000000000E+00 -0.12176594191E+04  0.12176594191E+04  0.00000000000E+00 0.  1.
  1000006    1    1    2  501    0 -0.12347669937E+03 -0.20247242918E+03  0.13925948572E+04  0.14553563193E+04  0.35000000000E+03 0.  0.
 -1000006    1    1    2    0  503 -0.70635899352E+02  0.22800008976E+03  0.23077031375E+03  0.48241932892E+03  0.35000000000E+03 0.  0.
       21    1    1    2  504  505  0.15692790434E+02 -0.18380131361E+03 -0.49162705020E+03  0.52509650831E+03  0.00000000000E+00 0.  1.
       21    1    1    2  505  502  0.17841980829E+03  0.15827365303E+03 -0.52633395161E+03  0.57785085087E+03  0.00000000000E+00 0. -1.
<scales pt_clust_1="13000.00000" pt_clust_2="13000.00000" pt_clust_3="184.47002" pt_clust_4="191.24027"></scales>
<clustering>
<clus scale="  184.470">  2  5  1 -1</clus>
<clus scale="  191.240">  2  6  1 -1</clus>
<clus scale="  415.648">  1  3  2 -1</clus>
<clus scale="  415.648">  1  3  2 -1</clus>
</clustering>
</event>
<event>
 5   1  0.3464723E-02  0.3921721E+03  0.7816531E-02  0.1046524E+00
       21   -1    0    0  504  502  0.00000000000E+00  0.00000000000E+00  0.33781150562E+03  0.33781150562E+03  0.00000000000E+00 0.  1.
       21   -1    0    0  501  503  0.00000000000E+00  0.00000000000E+00 -0.19895890530E+04  0.19895890530E+04  0.00000000000E+00 0.  1.
  1000006    1    1    2  501    0  0.84264577304E+02 -0.11092051945E+03 -0.12841626884E+04  0.13382741464E+04  0.35000000000E+03 0.  0.
 -1000006    1    1    2    0  502 -0.84791403202E+02  0.15953570396E+03  0.18444727899E+03  0.43492760503E+03  0.35000000000E+03 0.  0.
       21    1    1    2  504  503  0.52682589778E+00 -0.48615184508E+02 -0.55206213797E+03  0.55419880719E+03  0.00000000000E+00 0.  1.
<scales pt_clust_1="13000.00000" pt_clust_2="13000.00000" pt_clust_3="48.61804"></scales>
<clustering>
<clus scale="   48.618">  2  5  1 -1</clus>
<clus scale="  392.172">  1  4  2 -1</clus>
<clus scale="  392.172">  1  3  2 -1</clus>
</clustering>
</event>
<event>
 5   1  0.3464723E-02  0.8590128E+03  0.7816531E-02  0.9478320E-01
       -2   -1    0    0    0  501  0.00000000000E+00  0.00000000000E+00  0.93331039469E+03  0.93331039469E+03  0.00000000000E+00 0.  1.
        2   -1    0    0  503    0  0.00000000000E+00  0.00000000000E+00 -0.11104683617E+04  0.11104683617E+04  0.00000000000E+00 0. -1.
  1000006    1    1    2  502    0 -0.48733094283E+01  0.82269932144E+03 -0.27700187964E+03  0.93599570724E+03  0.35000000000E+03 0.  0.
 -1000006    1    1    2    0  501 -0.41111141016E+02 -0.76511534898E+03  0.30023030461E+03  0.89427616482E+03  0.35000000000E+03 0.  0.
       21    1    1    2  503  502  0.45984450444E+02 -0.57583972463E+02 -0.20038639196E+03  0.21350688432E+03  0.00000000000E+00 0.  1.
<scales pt_clust_1="13000.00000" pt_clust_2="13000.00000" pt_clust_3="73.69181"></scales>
<clustering>
<clus scale="   73.692">  2  5  1 -1</clus>
<clus scale=" 1725.232">  3  4 -1 -1</clus>
<clus scale="  859.013">  2  3  1 -1</clus>
</clustering>
</event>
<event>
 6   2  0.3464723E-02  0.5337900E+03  0.7816531E-02  0.1005317E+00
       21   -1    0    0  501  502  0.00000000000E+00  0.00000000000E+00  0.38691293495E+03  0.38691293495E+03  0.00000000000E+00 0.  1.
       21   -1    0    0  505  503  0.00000000000E+00  0.00000000000E+00 -0.11160241815E+04  0.11160241815E+04  0.00000000000E+00 0.  1.
  1000006    1    1    2  501    0 -0.34833287863E+03  0.24144470322E+03 -0.15477790513E+03  0.57104075070E+03  0.35000000000E+03 0.  0.
 -1000006    1    1    2    0  504  0.34972232231E+03 -0.14646456028E+03 -0.27995734089E+03  0.58705509354E+03  0.35000000000E+03 0.  0.
       21    1    1    2  504  503  0.46194244107E+02 -0.67376232579E+02 -0.27442248336E+03  0.28632353078E+03  0.00000000000E+00 0.  1.
       21    1    1    2  505  502 -0.47583687787E+02 -0.27603910359E+02 -0.19953517136E+02  0.58517741383E+02  0.00000000000E+00 0. -1.
<scales pt_clust_1="13000.00000" pt_clust_2="13000.00000" pt_clust_3="81.62909" pt_clust_4="55.01076"></scales>
<clustering>
<clus scale="   55.011">  1  6  2 -1</clus>
<clus scale="   81.629">  2  5  1 -1</clus>
<clus scale="  533.790">  2  4  1 -1</clus>
<clus scale="  533.790">  1  3  2 -1</clus>
</clustering>
</event>
<event>
 6   2  0.3464723E-02  0.6797629E+03  0.7816531E-02  0.9752480E-01
       21   -1    0    0  504  502  0.00000000000E+00  0.00000000000E+00  0.14673541139E+04  0.14673541139E+04  0.00000000000E+00 0. -1.
       21   -1    0    0  505  503  0.00000000000E+00  0.00000000000E+00 -0.53962208059E+03  0.53962208059E+03  0.00000000000E+00 0.  1.
  1000006    1    1    2  501    0  0.27621863379E+03 -0.46695506478E+03 -0.67099027174E+01  0.64566925664E+03  0.35000000000E+03 0.  0.
 -1000006    1    1    2    0  502 -0.37167297913E+03  0.52005092762E+03  0.90204853017E+03  0.11596487923E+04  0.35000000000E+03 0.  0.
       21    1    1    2  504  503  0.49519625850E+02 -0.40801307247E+02  0.10011366305E+03  0.11891040975E+03  0.00000000000E+00 0. -1.
       21    1    1    2  505  501  0.45934719486E+02 -0.12294555599E+02 -0.67720257167E+02  0.82747735814E+02  0.00000000000E+00 0.  1.
<scales pt_clust_1="13000.00000" pt_clust_2="13000.00000" pt_clust_3="65.04030" pt_clust_4="47.55160"></scales>
<clustering>
<clus scale="   47.552">  2  6  1 -1</clus>
<clus scale="   65.040">  1  5  2 -1</clus>
<clus scale="  679.763">  2  3  1 -1</clus>
<clus scale="  679.763">  1  3  2 -1</clus>
</clustering>
</event>
<event>
 4   0  0.3464723E-02  0.3753458E+03  0.7816531E-02  0.1052668E+00
       21   -1    0    0  503  502  0.00000000000E+00  0.00000000000E+00  0.49022327929E+03  0.49022327929E+03  0.00000000000E+00 0. -1.
       21   -1    0    0  501  503  0.00000000000E+00  0.00000000000E+00 -0.31241596901E+03  0.31241596901E+03  0.00000000000E+00 0. -1.
  1000006    1    1    2  501    0  0.68635710821E+02  0.11693408356E+03 -0.24684718800E+02  0.37615658447E+03  0.35000000000E+03 0.  0.
 -1000006    1    1    2    0  502 -0.68635710821E+02 -0.11693408356E+03  0.20249202909E+03  0.42648266382E+03  0.35000000000E+03 0.  0.
<scales pt_clust_1="13000.00000" pt_clust_2="13000.00000"></scales>
<clustering>
<clus scale="  375.346">  2  3  1 -1</clus>
<clus scale="  375.346">  1  3  2 -1</clus>
</clustering>
</event>
<event>
 6   2  0.3464723E-02  0.6096472E+03  0.7816531E-02  0.9885591E-01
        2   -1    0    0  503    0  0.00000000000E+00  0.00000000000E+00  0.25814625237E+04  0.25814625237E+04  0.00000000000E+00 0. -1.
        2   -1    0    0  501    0  0.00000000000E+00  0.00000000000E+00 -0.29062302006E+04  0.29062302006E+04  0.00000000000E+00 0. -1.
  1000006    1    1    2  501    0 -0.71424183201E+02  0.44103673112E+03 -0.16859224811E+04  0.17788899416E+04  0.35000000000E+03 0.  0.
 -1000006    1    1    2    0  502  0.28369491836E+03 -0.60071248982E+03 -0.94159373423E+03  0.12043409245E+04  0.35000000000E+03 0.  0.
        2    1    1    2  502    0 -0.16671621700E+03 -0.18858755029E+03  0.20651072521E+04  0.20803911949E+04  0.00000000000E+00 0. -1.
        2    1    1    2  503    0 -0.45554518168E+02  0.34826330899E+03  0.23764128628E+03  0.42407066328E+03  0.00000000000E+00 0. -1.
<scales pt_clust_1="13000.00000" pt_clust_2="13000.00000" pt_clust_3="251.71325" pt_clust_4="273.14961"></scales>
<clustering>
<clus scale="  251.713">  1  5  2 -1</clus>
<clus scale="  273.150">  1  6  2 -1</clus>
<clus scale=" 1248.106">  3  4 -1 -1</clus>
<clus scale="  609.647">  1  3  2 -1</clus>
</clustering>
</event>
<event>
 6   2  0.3464723E-02  0.3639092E+03  0.7816531E-02  0.1057047E+00
       21   -1    0    0  504  503  0.00000000000E+00  0.00000000000E+00  0.31934572519E+03  0.31934572519E+03  0.00000000000E+00 0.  1.
       -1   -1    0    0    0  501  0.00000000000E+00  0.00000000000E+00 -0.30286354700E+04  0.30286354700E+04  0.00000000000E+00 0.  1.
  1000006    1    1    2  502    0 -0.52636221906E+01  0.33907065013E+02 -0.76992988694E+03  0.84644516986E+03  0.35000000000E+03 0.  0.
 -1000006    1    1    2    0  501 -0.11055907864E+03 -0.12924359644E+03 -0.71408958873E+03  0.81323499545E+03  0.35000000000E+03 0.  0.
       21    1    1    2  504  502  0.28261358677E+02 -0.73103150267E+02  0.21848547605E+03  0.23211781107E+03  0.00000000000E+00 0.  1.
       -1    1    1    2    0  503  0.87561342154E+02  0.16843968169E+03 -0.14437557452E+04  0.14561832188E+04  0.00000000000E+00 0.  1.
<scales pt_clust_1="13000.00000" pt_clust_2="13000.00000" pt_clust_3="78.37586" pt_clust_4="186.45528"></scales>
<clustering>
<clus scale="   78.376">  1  5  2 -1</clus>
<clus scale="  186.455">  2  6  1 -1</clus>
<clus scale="  363.909">  1  3  2 -1</clus>
<clus scale="  363.909">  1  3  2 -1</clus>
</clustering>
</event>
<event>
 5   1  0.3464723E-02  0.4059373E+03  0.7816531E-02  0.1041743E+00
       21   -1    0    0  504  502  0.00000000000E+00  0.00000000000E+00  0.28792831600E+03  0.28792831600E+03  0.00000000000E+00 0.  1.
       21   -1    0    0  501  503  0.00000000000E+00  0.00000000000E+00 -0.11148466398E+04  0.11148466398E+04  0.00000000000E+00 0.  1.
  1000006    1    1    2  501    0 -0.46807863951E+02 -0.19898911656E+03 -0.76228988947E+03  0.86335017243E+03  0.35000000000E+03 0.  0.
 -1000006    1    1    2    0  502 -0.61699201231E+02  0.22305326314E+03 -0.80216772229E+02  0.42719349267E+03  0.35000000000E+03 0.  0.
       21    1    1    2  504  503  0.10850706518E+03 -0.24064146574E+02  0.15588337873E+02  0.11223129074E+03  0.00000000000E+00 0.  1.
<scales pt_clust_1="13000.00000" pt_clust_2="13000.00000" pt_clust_3="111.14345"></scales>
<clustering>
<clus scale="  111.143">  1  5  2 -1</clus>
<clus scale="  405.937">  2  3  1 -1</clus>
<clus scale="  405.937">  1  3  2 -1</clus>
</clustering>
</event>
<event>
 6   2  0.3464723E-02  0.9759733E+03  0.7816531E-02  0.9335297E-01
       21   -1    0    0  504  503  0.00000000000E+00  0.00000000000E+00  0.13917127997E+04  0.13917127997E+04  0.00000000000E+00 0. -1.
        2   -1    0    0  503    0  0.00000000000E+00  0.00000000000E+00 -0.10794771235E+04  0.10794771235E+04  0.00000000000E+00 0.  1.
  1000006    1    1    2  501    0 -0.71966160272E+03 -0.60570765848E+03  0.31767453187E+03  0.10527163427E+04  0.35000000000E+03 0.  0.
 -1000006    1    1    2    0  502  0.82343409863E+03  0.33901332071E+03  0.60861435464E+02  0.95873763915E+03  0.35000000000E+03 0.  0.
       21    1    1    2  504  501 -0.47340059118E+02 -0.28027715920E+02  0.10185018362E+03  0.11575877487E+03  0.00000000000E+00 0. -1.
        2    1    1    2  502    0 -0.56432436798E+02  0.29472205370E+03 -0.16815047473E+03  0.34397716641E+03  0.00000000000E+00 0.  1.
<scales pt_clust_1="13000.00000" pt_clust_2="13000.00000" pt_clust_3="55.01485" pt_clust_4="298.82093"></scales>
<clustering>
<clus scale="   55.015">  1  5  2 -1</clus>
<clus scale="  298.821">  2  6  1 -1</clus>
<clus scale="  975.973">  1  3  2 -1</clus>
<clus scale="  975.973">  1  3  2 -1</clus>
</clustering>
</event>
<event>
 6   2  0.3464723E-02  0.9322120E+03  0.7816531E-02  0.9386187E-01
       21   -1    0    0  502  503  0.00000000000E+00  0.00000000000E+00  0.55700897828E+03  0.55700897828E+03  0.00000000000E+00 0. -1.
        2   -1    0    0  501    0  0.00000000000E+00  0.00000000000E+00 -0.24087045745E+04  0.24087045745E+04  0.00000000000E+00 0.  1.
  1000006    1    1    2  501    0  0.22174435834E+03  0.84419645453E+03 -0.96256372968E+03  0.13456846391E+04  0.35000000000E+03 0.  0.
 -1000006    1    1    2    0  504 -0.17582627094E+03 -0.82087157830E+03 -0.28133259792E+03  0.95204677210E+03  0.35000000000E+03 0.  0.
       21    1    1    2  504  503 -0.21934598996E+02 -0.42819678924E+02  0.10225116161E+02  0.49185409796E+02  0.00000000000E+00 0.  1.
        2    1    1    2  502    0 -0.23983488399E+02  0.19494802694E+02 -0.61802438481E+03  0.61879673178E+03  0.00000000000E+00 0.  1.
<scales pt_clust_1="13000.00000" pt_clust_2="13000.00000" pt_clust_3="48.04214" pt_clust_4="30.90720"></scales>
<clustering>
<clus scale="   30.907">  2  6  1 -1</clus>
<clus scale="   48.042">  1  5  2 -1</clus>
<clus scale="  932.212">  1  4  2 -1</clus>
<clus scale="  932.212">  1  3  2 -1</clus>
</clustering>
</event>
<event>
 6   2  0.3464723E-02  0.3671629E+03  0.7816531E-02  0.1055783E+00
       21   -1    0    0  501  503  0.00000000000E+00  0.00000000000E+00  0.48695226513E+03  0.48695226513E+03  0.00000000000E+00 0.  1.
        1   -1    0    0  504    0  0.00000000000E+00  0.00000000000E+00 -0.13095957014E+04  0.13095957014E+04  0.00000000000E+00 0. -1.
  1000006    1    1    2  501    0  0.31075096271E+02  0.10299431745E+03  0.16825140985E+03  0.40296653453E+03  0.35000000000E+03 0.  0.
 -1000006    1    1    2    0  502 -0.46090407870E+02 -0.10699256482E+03  0.12269591182E+02  0.36908302249E+03  0.35000000000E+03 0.  0.
       21    1    1    2  504  503  0.40422731514E+02 -0.62441970638E+02 -0.14111702007E+03  0.15952119068E+03  0.00000000000E+00 0.  1.
        1    1    1    2  502    0 -0.25407419915E+02  0.66440218007E+02 -0.86204741727E+03  0.86497721887E+03  0.00000000000E+00 0. -1.
<scales pt_clust_1="13000.00000" pt_clust_2="13000.00000" pt_clust_3="51.17998" pt_clust_4="71.13255"></scales>
<clustering>
<clus scale="   71.133">  2  6  1 -1</clus>
<clus scale="   51.180">  2  5  1 -1</clus>
<clus scale="  367.163">  2  4  1 -1</clus>
<clus scale="  367.163">  1  3  2 -1</clus>
</clustering>
</event>
<event>
 6   2  0.3464723E-02  0.5662116E+03  0.7816531E-02  0.9978097E-01
       -2   -1    0    0    0  501  0.00000000000E+00  0.00000000000E+00  0.47507243563E+03  0.47507243563E+03  0.00000000000E+00 0.  1.
        2   -1    0    0  504    0  0.00000000000E+00  0.00000000000E+00 -0.23132733992E+04  0.23132733992E+04  0.00000000000E+00 0. -1.
  1000006    1    1    2  502    0  0.38986699149E+03  0.21591664672E+03  0.87551725255E+02  0.57339478022E+03  0.35000000000E+03 0.  0.
 -1000006    1    1    2    0  501 -0.39982569466E+03 -0.19294410237E+03 -0.56947517527E+03  0.80242755935E+03  0.35000000000E+03 0.  0.
       21    1    1    2  503  502  0.73748980497E+02 -0.35413760867E+02 -0.33910858861E+02  0.88560673732E+02  0.00000000000E+00 0.  1.
       21    1    1    2  504  503 -0.63790277335E+02  0.12441216518E+02 -0.13223666547E+04  0.13239628216E+04  0.00000000000E+00 0. -1.
<scales pt_clust_1="13000.00000" pt_clust_2="13000.00000" pt_clust_3="77.92808" pt_clust_4="64.99218"></scales>
<clustering>
<clus scale="   64.992">  2  6  1 -1</clus>
<clus scale="   77.928">  2  5  1 -1</clus>
<clus scale=" 1136.886">  3  4 -1 -1</clus>
<clus scale="  566.212">  2  3  1 -1</clus>
</clustering>
</event>
<event>
 6   2  0.3464723E-02  0.4189809E+03  0.7816531E-02  0.1037399E+00
        2   -1    0    0  501    0  0.00000000000E+00  0.00000000000E+00  0.15018307367E+04  0.15018307367E+04  0.00000000000E+00 0. -1.
       21   -1    0    0  502  503  0.00000000000E+00  0.00000000000E+00 -0.21082000224E+03  0.21082000224E+03  0.00000000000E+00 0. -1.
  1000006    1    1    2  501    0  0.38222171952E+01 -0.27768647214E+03  0.60821826928E+03  0.75468791513E+03  0.35000000000E+03 0.  0.
 -1000006    1    1    2    0  504 -0.14629111338E+03  0.17123665108E+03  0.32468236654E+03  0.52786524765E+03  0.35000000000E+03 0.  0.
       21    1    1    2  504  503  0.43874183497E+02  0.12860461620E+02 -0.14028379525E+01  0.45741703126E+02  0.00000000000E+00 0. -1.
        2    1    1    2  502    0  0.98594712689E+02  0.93589359432E+02  0.35951293655E+03  0.38435587301E+03  0.00000000000E+00 0. -1.
<scales pt_clust_1="13000.00000" pt_clust_2="13000.00000" pt_clust_3="45.72019" pt_clust_4="138.64591"></scales>
<clustering>
<clus scale="   45.720">  2  5  1 -1</clus>
<clus scale="  138.646">  1  6  2 -1</clus>
<clus scale="  418.981">  1  3  2 -1</clus>
<clus scale="  418.981">  2  3  1 -1</clus>
</clustering>
</event>
<event>
 6   2  0.3464723E-02  0.3610449E+03  0.7816531E-02  0.1058171E+00
       21   -1    0    0  505  502  0.00000000000E+00  0.00000000000E+00  0.13896965127E+04  0.13896965127E+04  0.00000000000E+00 0.  1.
       21   -1    0    0  501  503  0.00000000000E+00  0.00000000000E+00 -0.22146110177E+03  0.22146110177E+03  0.00000000000E+00 0.  1.
  1000006    1    1    2  501    0  0.90089843199E+02 -0.46372828207E+01  0.35952849304E+03  0.50980233576E+03  0.35000000000E+03 0.  0.
 -1000006    1    1    2    0  502 -0.72533263338E+02 -0.69288633575E+02  0.56044254332E+03  0.66832464671E+03  0.35000000000E+03 0.  0.
       21    1    1    2  504  503 -0.26084197189E+02 -0.12788352863E+03  0.26712117657E+02  0.13322206825E+03  0.00000000000E+00 0.  1.
       21    1    1    2  505  504  0.85276173282E+01  0.20180944503E+03  0.22155225692E+03  0.29980856376E+03  0.00000000000E+00 0.  1.
<scales pt_clust_1="13000.00000" pt_clust_2="13000.00000" pt_clust_3="130.51660" pt_clust_4="172.07873"></scales>
<clustering>
<clus scale="  130.517">  2  5  1 -1</clus>
<clus scale="  172.079">  2  6  1 -1</clus>
<clus scale="  361.045">  2  3  1 -1</clus>
<clus scale="  361.045">  1  3  2 -1</clus>
</clustering>
</event>
<event>
 4   0  0.3464723E-02  0.3741435E+03  0.7816531E-02  0.1053120E+00
       21   -1    0    0  503  502  0.00000000000E+00  0.00000000000E+00  0.11301155133E+04  0.11301155133E+04  0.00000000000E+00 0.  1.
       21   -1    0    0  501  503  0.00000000000E+00  0.00000000000E+00 -0.20094956947E+03  0.20094956947E+03  0.00000000000E+00 0.  1.
  1000006    1    1    2  501    0 -0.72418105149E+02 -0.11063003013E+03  0.52385404888E+02  0.37779308645E+03  0.35000000000E+03 0.  0.
 -1000006    1    1    2    0  502  0.72418105149E+02  0.11063003013E+03  0.87678053899E+03  0.95327199637E+03  0.35000000000E+03 0.  0.
<scales pt_clust_1="13000.00000" pt_clust_2="13000.00000"></scales>
<clustering>
<clus scale="  374.144">  2  3  1 -1</clus>
<clus scale="  374.144">  1  3  2 -1</clus>
</clustering>
</event>
<event>
 4   0  0.3464723E-02  0.3635577E+03  0.7816531E-02  0.1057184E+00
       21   -1    0    0  503  502  0.00000000000E+00  0.00000000000E+00  0.58981312551E+02  0.58981312551E+02  0.00000000000E+00 0.  1.
       21   -1    0    0  501  503  0.00000000000E+00  0.00000000000E+00 -0.22414564067E+04  0.22414564067E+04  0.00000000000E+00 0.  1.
  1000006    1    1    2  501    0  0.96476317956E+02  0.19145408006E+02 -0.11085106575E+04  0.11666062336E+04  0.35000000000E+03 0.  0.
 -1000006    1    1    2    0  502 -0.96476317956E+02 -0.19145408006E+02 -0.10739644366E+04  0.11338314856E+04  0.35000000000E+03 0.  0.
<scales pt_clust_1="13000.00000" pt_clust_2="13000.00000"></scales>
<clustering>
<clus scale="  363.558">  2  3  1 -1</clus>
<clus scale="  363.558">  1  3  2 -1</clus>
</clustering>
</event>
<event>
 4   0  0.3464723E-02  0.3673669E+03  0.7816531E-02  0.1055704E+00
       21   -1    0    0  501  502  0.00000000000E+00  0.00000000000E+00  0.55489553203E+03  0.55489553203E+03  0.00000000000E+00 0.  1.
       21   -1    0    0  502  503  0.00000000000E+00  0.00000000000E+00 -0.25357831003E+03  0.25357831003E+03  0.00000000000E+00 0.  1.
  1000006    1    1    2  501    0  0.30855483022E+02 -0.10726781088E+03  0.23238212294E+03  0.43469517497E+03  0.35000000000E+03 0.  0.
 -1000006    1    1    2    0  503 -0.30855483022E+02  0.10726781088E+03  0.68935099063E+02  0.37377866708E+03  0.35000000000E+03 0.  0.
<scales pt_clust_1="13000.00000" pt_clust_2="13000.00000"></scales>
<clustering>
<clus scale="  367.367">  1  3  2 -1</clus>
<clus scale="  367.367">  1  3  2 -1</clus>
</clustering>
</event>
<event>
 6   2  0.3464723E-02  0.3594712E+03  0.7816531E-02  0.1058793E+00
       21   -1    0    0  501  503  0.00000000000E+00  0.00000000000E+00  0.58897035590E+03  0.58897035590E+03  0.00000000000E+00 0. -1.
        2   -1    0    0  503    0  0.00000000000E+00  0.00000000000E+00 -0.11879773056E+04  0.11879773056E+04  0.00000000000E+00 0. -1.
  1000006    1    1    2  501    0  0.60352796913E+02  0.14797037753E+03  0.29814121139E+03  0.48675032065E+03  0.35000000000E+03 0.  0.
 -1000006    1    1    2    0  504 -0.43728485497E+02  0.12733044198E+03 -0.30206218216E+02  0.37621488211E+03  0.35000000000E+03 0.  0.
       21    1    1    2  504  502 -0.16018713671E+02 -0.19616572155E+03 -0.47555191195E+03  0.51467194451E+03  0.00000000000E+00 0. -1.
        2    1    1    2  502    0 -0.60559774569E+00 -0.79135097964E+02 -0.39139003090E+03  0.39931051422E+03  0.00000000000E+00 0. -1.
<scales pt_clust_1="13000.00000" pt_clust_2="13000.00000" pt_clust_3="55.67346" pt_clust_4="289.44015"></scales>
<clustering>
<clus scale="   55.673">  5  6 -1 -1</clus>
<clus scale="  289.440">  2  5  1 -1</clus>
<clus scale="  359.471">  1  3  2 -1</clus>
<clus scale="  359.471">  1  3  2 -1</clus>
</clustering>
</event>
<event>
 6   2  0.3464723E-02  0.3728801E+03  0.7816531E-02  0.1053597E+00
       21   -1    0    0  504  502  0.00000000000E+00  0.00000000000E+00  0.32557990829E+03  0.32557990829E+03  0.00000000000E+00 0.  1.
       21   -1    0    0  501  503  0.00000000000E+00  0.00000000000E+00 -0.23175001266E+04  0.23175001266E+04  0.00000000000E+00 0.  1.
  1000006    1    1    2  501    0  0.17614567107E+01  0.15965126837E+03 -0.14536345578E+04  0.15036771787E+04  0.35000000000E+03 0.  0.
 -1000006    1    1    2    0  502  0.10118462458E+03 -0.10969572599E+03 -0.41548161411E+03  0.56337949218E+03  0.35000000000E+03 0.  0.
       21    1    1    2  504  505 -0.95896798316E+02 -0.68793599658E+01  0.21494401952E+03  0.23546645843E+03  0.00000000000E+00 0.  1.
       21    1    1    2  505  503 -0.70492829734E+01 -0.43076182407E+02 -0.33774806597E+03  0.34055690560E+03  0.00000000000E+00 0. -1.
<scales pt_clust_1="13000.00000" pt_clust_2="13000.00000" pt_clust_3="96.19594" pt_clust_4="43.64917"></scales>
<clustering>
<clus scale="   43.649">  2  6  1 -1</clus>
<clus scale="   96.196">  1  5  2 -1</clus>
<clus scale="  372.880">  2  3  1 -1</clus>
<clus scale="  372.880">  1  3  2 -1</clus>
</clustering>
</event>
<event>
 6   2  0.3464723E-02  0.3977907E+03  0.7816531E-02  0.1044547E+00
       21   -1    0    0  505  502  0.00000000000E+00  0.00000000000E+00  0.21722298609E+04  0.21722298609E+04  0.00000000000E+00 0. -1.
       21   -1    0    0  504  503  0.00000000000E+00  0.00000000000E+00 -0.14829544931E+03  0.14829544931E+03  0.00000000000E+00 0. -1.
  1000006    1    1    2  501    0 -0.21323804229E+03  0.52524441086E+02  0.32638198275E+03  0.52654959715E+03  0.35000000000E+03 0.  0.
 -1000006    1    1    2    0  502  0.15080924699E+03 -0.55284336565E+02  0.99732333436E+03  0.10690900898E+04  0.35000000000E+03 0.  0.
       21    1    1    2  504  501  0.24456251677E+02 -0.26379702528E+02  0.16660034015E+02  0.39642826400E+02  0.00000000000E+00 0.  1.
       21    1    1    2  505  503  0.37972543627E+02  0.29139598007E+02  0.68356906046E+03  0.68524279687E+03  0.00000000000E+00 0. -1.
<scales pt_clust_1="13000.00000" pt_clust_2="13000.00000" pt_clust_3="35.97217" pt_clust_4="47.88565"></scales>
<clustering>
<clus scale="   35.972">  2  5  1 -1</clus>
<clus scale="   47.886">  1  6  2 -1</clus>
<clus scale="  397.791">  1  4  2 -1</clus>
<clus scale="  397.791">  1  3  2 -1</clus>
</clustering>
</event>
<event>
 4   0  0.3464723E-02  0.3744998E+03  0.7816531E-02  0.1052986E+00
       21   -1    0    0  503  502  0.00000000000E+00  0.00000000000E+00  0.59187533995E+03  0.59187533995E+03  0.00000000000E+00 0.  1.
       21   -1    0    0  501  503  0.00000000000E+00  0.00000000000E+00 -0.44555699448E+03  0.44555699448E+03  0.00000000000E+00 0.  1.
  1000006    1    1    2  501    0 -0.12675442474E+03 -0.41029697530E+02 -0.28176316712E+03  0.46865830049E+03  0.35000000000E+03 0.  0.
 -1000006    1    1    2    0  502  0.12675442474E+03  0.41029697530E+02  0.42808151259E+03  0.56877403395E+03  0.35000000000E+03 0.  0.
<scales pt_clust_1="13000.00000" pt_clust_2="13000.00000"></scales>
<clustering>
<clus scale="  374.500">  2  3  1 -1</clus>
<clus scale="  374.500">  1  3  2 -1</clus>
</clustering>
</event>
<event>
 6   2  0.3464723E-02  0.5275971E+03  0.7816531E-02  0.1006817E+00
       21   -1    0    0  504  502  0.00000000000E+00  0.00000000000E+00  0.38393598746E+03  0.38393598746E+03  0.00000000000E+00 0. -1.
       21   -1    0    0  502  503  0.00000000000E+00  0.00000000000E+00 -0.16190091842E+04  0.16190091842E+04  0.00000000000E+00 0. -1.
  1000006    1    1    2  501    0  0.32801384073E+03  0.13221516081E+03 -0.10611586420E+03  0.50875780593E+03  0.35000000000E+03 0.  0.
 -1000006    1    1    2    0  505 -0.40671514552E+03 -0.14673368194E+03 -0.11472084063E+04  0.12749647487E+04  0.35000000000E+03 0.  0.
       21    1    1    2  504  501  0.52835954585E+02 -0.14849631608E+02  0.10809258724E+03  0.12122770753E+03  0.00000000000E+00 0. -1.
       21    1    1    2  505  503  0.25865350209E+02  0.29368152743E+02 -0.89841513491E+02  0.97994909477E+02  0.00000000000E+00 0. -1.
<scales pt_clust_1="13000.00000" pt_clust_2="13000.00000" pt_clust_3="54.95628" pt_clust_4="39.13444"></scales>
<clustering>
<clus scale="   39.134">  2  6  1 -1</clus>
<clus scale="   54.956">  1  5  2 -1</clus>
<clus scale="  527.597">  2  4  1 -1</clus>
<clus scale="  527.597">  1  3  2 -1</clus>
</clustering>
</event>
<event>
 4   0  0.3464723E-02  0.3547217E+03  0.7816531E-02  0.1060694E+00
       21   -1    0    0  501  502  0.00000000000E+00  0.00000000000E+00  0.10197650321E+04  0.10197650321E+04  0.00000000000E+00 0. -1.
       21   -1    0    0  502  503  0.00000000000E+00  0.00000000000E+00 -0.13454953342E+03  0.13454953342E+03  0.00000000000E+00 0. -1.
  1000006    1    1    2  501    0 -0.25959791798E+02  0.51512731102E+02  0.60883475194E+03  0.70463268972E+03  0.35000000000E+03 0.  0.
 -1000006    1    1    2    0  503  0.25959791798E+02 -0.51512731102E+02  0.27638074673E+03  0.44968187580E+03  0.35000000000E+03 0.  0.
<scales pt_clust_1="13000.00000" pt_clust_2="13000.00000"></scales>
<clustering>
<clus scale="  354.722">  1  3  2 -1</clus>
<clus scale="  354.722">  1  3  2 -1</clus>
</clustering>
</event>
<event>
 5   1  0.3464723E-02  0.3588111E+03  0.7816531E-02  0.1059056E+00
        2   -1    0    0  503    0  0.00000000000E+00  0.00000000000E+00  0.11266293658E+04  0.11266293658E+04  0.00000000000E+00 0. -1.
       21   -1    0    0  501  503  0.00000000000E+00  0.00000000000E+00 -0.22654058366E+03  0.22654058366E+03  0.00000000000E+00 0.  1.
  1000006    1    1    2  501    0  0.35466647966E+02  0.26231866637E+02  0.99893315772E+02  0.36663969845E+03  0.35000000000E+03 0.  0.
 -1000006    1    1    2    0  502 -0.26094039489E+02 -0.16043213019E+03  0.36558230678E+03  0.53157293980E+03  0.35000000000E+03 0.  0.
        2    1    1    2  502    0 -0.93726084768E+01  0.13420026356E+03  0.43461315957E+03  0.45495731119E+03  0.00000000000E+00 0. -1.
<scales pt_clust_1="13000.00000" pt_clust_2="13000.00000" pt_clust_3="134.52716"></scales>
<clustering>
<clus scale="  134.527">  1  5  2 -1</clus>
<clus scale="  358.811">  1  4  2 -1</clus>
<clus scale="  358.811">  2  3  1 -1</clus>
</clustering>
</event>
<event>
 6   2  0.3464723E-02  0.4890637E+03  0.7816531E-02  0.1016674E+00
       21   -1    0    0  503  502  0.00000000000E+00  0.00000000000E+00  0.30035664234E+04  0.30035664234E+04  0.00000000000E+00 0.  1.
       21   -1    0    0  501  503  0.00000000000E+00  0.00000000000E+00 -0.25392666623E+03  0.25392666623E+03  0.00000000000E+00 0.  1.
  1000006    1    1    2  501    0  0.32130308045E+03 -0.53033271366E+02  0.19883318191E+03  0.51776715964E+03  0.35000000000E+03 0.  0.
 -1000006    1    1    2    0  504 -0.35346227878E+03  0.13977963606E+03  0.65185449083E+03  0.83179817648E+03  0.35000000000E+03 0.  0.
       21    1    1    2  504  505  0.22360336898E+02 -0.51428470605E+02  0.17886360449E+03  0.18744882306E+03  0.00000000000E+00 0. -1.
       21    1    1    2  505  502  0.97988614389E+01 -0.35317894093E+02  0.17200884799E+04  0.17204789304E+04  0.00000000000E+00 0.  1.
<scales pt_clust_1="13000.00000" pt_clust_2="13000.00000" pt_clust_3="61.26382" pt_clust_4="36.65203"></scales>
<clustering>
<clus scale="   36.652">  1  6  2 -1</clus>
<clus scale="   61.264">  1  5  2 -1</clus>
<clus scale="  489.064">  2  3  1 -1</clus>
<clus scale="  489.064">  1  3  2 -1</clus>
</clustering>
</event>
<event>
 5   1  0.3464723E-02  0.3584485E+03  0.7816531E-02  0.1059200E+00
       21   -1    0    0  501  502  0.00000000000E+00  0.00000000000E+00  0.14249129757E+04  0.14249129757E+04  0.00000000000E+00 0. -1.
       21   -1    0    0  504  503  0.00000000000E+00  0.00000000000E+00 -0.17562746987E+03  0.17562746987E+03  0.00000000000E+00 0. -1.
  1000006    1    1    2  501    0 -0.13260892017E+02  0.11079064239E+03  0.33331205139E+03  0.49603159305E+03  0.35000000000E+03 0.  0.
 -1000006    1    1    2    0  503  0.70370398514E+02 -0.23217098615E+02  0.26505440583E+03  0.44524697046E+03  0.35000000000E+03 0.  0.
       21    1    1    2  504  502 -0.57109506497E+02 -0.87573543775E+02  0.65091904863E+03  0.65926188208E+03  0.00000000000E+00 0. -1.
<scales pt_clust_1="13000.00000" pt_clust_2="13000.00000" pt_clust_3="104.54961"></scales>
<clustering>
<clus scale="  104.550">  1  5  2 -1</clus>
<clus scale="  358.449">  1  3  2 -1</clus>
<clus scale="  358.449">  1  3  2 -1</clus>
</clustering>
</event>
<event>
 4   0  0.3464723E-02  0.3767777E+03  0.7816531E-02  0.1052131E+00
       21   -1    0    0  501  502  0.00000000000E+00  0.00000000000E+00  0.65807645262E+03  0.65807645262E+03  0.00000000000E+00 0.  1.
       21   -1    0    0  502  503  0.00000000000E+00  0.00000000000E+00 -0.81306958796E+03  0.81306958796E+03  0.00000000000E+00 0.  1.
  1000006    1    1    2  501    0  0.13761380846E+03 -0.22888131998E+02  0.55298960806E+03  0.66914791600E+03  0.35000000000E+03 0.  0.
 -1000006    1    1    2    0  503 -0.13761380846E+03  0.22888131998E+02 -0.70798274340E+03  0.80199812457E+03  0.35000000000E+03 0.  0.
<scales pt_clust_1="13000.00000" pt_clust_2="13000.00000"></scales>
<clustering>
<clus scale="  376.778">  1  3  2 -1</clus>
<clus scale="  376.778">  1  3  2 -1</clus>
</clustering>
</event>
<event>
 4   0  0.3464723E-02  0.4071005E+03  0.7816531E-02  0.1041348E+00
       21   -1    0    0  501  502  0.00000000000E+00  0.00000000000E+00  0.94882603264E+03  0.94882603264E+03  0.00000000000E+00 0. -1.
       21   -1    0    0  502  503  0.00000000000E+00  0.00000000000E+00 -0.17586480147E+03  0.17586480147E+03  0.00000000000E+00 0.  1.
  1000006    1    1    2  501    0 -0.38927092580E+02  0.20424380773E+03  0.43284397094E+03  0.59420935259E+03  0.35000000000E+03 0.  0.
 -1000006    1    1    2    0  503  0.38927092580E+02 -0.20424380773E+03  0.34011726023E+03  0.53048148152E+03  0.35000000000E+03 0.  0.
<scales pt_clust_1="13000.00000" pt_clust_2="13000.00000"></scales>
<clustering>
<clus scale="  407.101">  1  3  2 -1</clus>
<clus scale="  407.101">  1  3  2 -1</clus>
</clustering>
</event>
<event>
 5   1  0.3464723E-02  0.1292440E+04  0.7816531E-02  0.9333616E-01
        1   -1    0    0  501    0  0.00000000000E+00  0.00000000000E+00  0.25586416235E+04  0.25586416235E+04  0.00000000000E+00 0.  1.
       21   -1    0    0  502  503  0.00000000000E+00  0.00000000000E+00 -0.12043226254E+04  0.12043226254E+04  0.00000000000E+00 0.  1.
  1000006    1    1    2  501    0 -0.26292114867E+03 -0.10533042117E+04 -0.47526117787E+03  0.12356983774E+04  0.35000000000E+03 0.  0.
 -1000006    1    1    2    0  503  0.61685507779E+02 -0.22908758351E+03  0.63673281116E+03  0.76433951592E+03  0.35000000000E+03 0.  0.
        1    1    1    2  502    0  0.20123564089E+03  0.12823917952E+04  0.11928473647E+04  0.17629263556E+04  0.00000000000E+00 0.  1.
<scales pt_clust_1="13000.00000" pt_clust_2="13000.00000" pt_clust_3="1244.14684"></scales>
<clustering>
<clus scale="  422.831">  2  4  1 -1</clus>
<clus scale=" 1244.147">  1  5  2 -1</clus>
<clus scale=" 1292.440">  2  3  1 -1</clus>
</clustering>
</event>
<event>
 5   1  0.3464723E-02  0.4114890E+03  0.7816531E-02  0.1039872E+00
        2   -1    0    0  503    0  0.00000000000E+00  0.00000000000E+00  0.25887369993E+04  0.25887369993E+04  0.00000000000E+00 0.  1.
       -2   -1    0    0    0  501  0.00000000000E+00  0.00000000000E+00 -0.93038535045E+02  0.93038535045E+02  0.00000000000E+00 0. -1.
  1000006    1    1    2  502    0  0.17607780251E+03  0.11981174311E+03  0.83072735225E+03  0.92626463827E+03  0.35000000000E+03 0.  0.
 -1000006    1    1    2    0  501 -0.23484362804E+03 -0.24123528485E+02  0.10746070743E+04  0.11545621848E+04  0.35000000000E+03 0.  0.
       21    1    1    2  503  502  0.58765825532E+02 -0.95688214624E+02  0.59036403766E+03  0.60094871131E+03  0.00000000000E+00 0.  1.
<scales pt_clust_1="13000.00000" pt_clust_2="13000.00000" pt_clust_3="112.29273"></scales>
<clustering>
<clus scale="  112.293">  1  5  2 -1</clus>
<clus scale="  565.183">  3  4 -1 -1</clus>
<clus scale="  411.489">  1  3  2 -1</clus>
</clustering>
</event>
<event>
 5   1  0.3464723E-02  0.5403021E+03  0.7816531E-02  0.1003764E+00
       21   -1    0    0  502  503  0.00000000000E+00  0.00000000000E+00  0.75508665942E+03  0.75508665942E+03  0.00000000000E+00 0.  1.
        2   -1    0    0  501    0  0.00000000000E+00  0.00000000000E+00 -0.26973044218E+04  0.26973044218E+04  0.00000000000E+00 0. -1.
  1000006    1    1    2  501    0  0.12422222679E+03  0.39992312963E+03 -0.28694486034E+03  0.61660929616E+03  0.35000000000E+03 0.  0.
 -1000006    1    1    2    0  503 -0.16317468165E+03 -0.37632978225E+03  0.46681307216E+03  0.71320721118E+03  0.35000000000E+03 0.  0.
        2    1    1    2  502    0  0.38952454866E+02 -0.23593347372E+02 -0.21220859741E+04  0.21225745738E+04  0.00000000000E+00 0. -1.
<scales pt_clust_1="13000.00000" pt_clust_2="13000.00000" pt_clust_3="45.54053"></scales>
<clustering>
<clus scale="   45.541">  2  5  1 -1</clus>
<clus scale="  540.302">  2  3  1 -1</clus>
<clus scale="  540.302">  1  3  2 -1</clus>
</clustering>
</event>
<event>
 5   1  0.3464723E-02  0.3950751E+03  0.7816531E-02  0.1045498E+00
       21   -1    0    0  501  502  0.00000000000E+00  0.00000000000E+00  0.26174580624E+03  0.26174580624E+03  0.00000000000E+00 0.  1.
       21   -1    0    0  502  503  0.00000000000E+00  0.00000000000E+00 -0.69665639764E+03  0.69665639764E+03  0.00000000000E+00 0.  1.
  1000006    1    1    2  501    0 -0.12367219878E+03  0.12403221380E+03 -0.13379412323E+03  0.41361778277E+03  0.35000000000E+03 0.  0.
 -1000006    1    1    2    0  504  0.15595146733E+03 -0.11602451162E+03 -0.21933225913E+03  0.45649664550E+03  0.35000000000E+03 0.  0.
       21    1    1    2  504  503 -0.32279268546E+02 -0.80077021774E+01 -0.81784209049E+02  0.88287775608E+02  0.00000000000E+00 0.  1.
<scales pt_clust_1="13000.00000" pt_clust_2="13000.00000" pt_clust_3="33.25770"></scales>
<clustering>
<clus scale="   33.258">  2  5  1 -1</clus>
<clus scale="  395.075">  1  3  2 -1</clus>
<clus scale="  395.075">  1  3  2 -1</clus>
</clustering>
</event>
<event>
 6   2  0.3464723E-02  0.4396784E+03  0.7816531E-02  0.1030846E+00
       -1   -1    0    0    0  501  0.00000000000E+00  0.00000000000E+00  0.35295195721E+03  0.35295195721E+03  0.00000000000E+00 0.  1.
       21   -1    0    0  502  503  0.00000000000E+00  0.00000000000E+00 -0.12443483762E+04  0.12443483762E+04  0.00000000000E+00 0.  1.
  1000006    1    1    2  502    0  0.21878819426E+03  0.10209198120E+03 -0.74189629878E+03  0.85510301409E+03  0.35000000000E+03 0.  0.
 -1000006    1    1    2    0  501 -0.28273892846E+03  0.35171147906E+01 -0.22676884298E+03  0.50386285824E+03  0.35000000000E+03 0.  0.
       21    1    1    2  504  503  0.55270032772E+02 -0.20426278372E+02 -0.55109190329E+02  0.80678573546E+02  0.00000000000E+00 0. -1.
       -1    1    1    2    0  504  0.86807014311E+01 -0.85182817620E+02  0.13237791310E+03  0.15765588753E+03  0.00000000000E+00 0.  1.
<scales pt_clust_1="13000.00000" pt_clust_2="13000.00000" pt_clust_3="58.92376" pt_clust_4="85.90438"></scales>
<clustering>
<clus scale="   58.924">  2  5  1 -1</clus>
<clus scale="   85.904">  1  6  2 -1</clus>
<clus scale="  439.678">  2  3  1 -1</clus>
<clus scale="  439.678">  2  3  1 -1</clus>
</clustering>
</event>
<event>
 6   2  0.3464723E-02  0.3737981E+03  0.7816531E-02  0.1053250E+00
        2   -1    0    0  502    0  0.00000000000E+00  0.00000000000E+00  0.20333667889E+04  0.20333667889E+04  0.00000000000E+00 0.  1.
       -1   -1    0    0    0  501  0.00000000000E+00  0.00000000000E+00 -0.34724924820E+03  0.34724924820E+03  0.00000000000E+00 0.  1.
  1000006    1    1    2  502    0  0.80523375351E+02  0.69283524977E+02  0.99458948943E+03  0.10597133921E+04  0.35000000000E+03 0.  0.
 -1000006    1    1    2    0  501  0.28543291371E+03  0.12809291859E+03  0.11700841818E+03  0.48380855092E+03  0.35000000000E+03 0.  0.
        2    1    1    2  503    0 -0.24443572259E+03 -0.21818965605E+02  0.57325753741E+03  0.62357765670E+03  0.00000000000E+00 0.  1.
       -1    1    1    2    0  503 -0.12152056647E+03 -0.17555747797E+03  0.12620956388E+01  0.21351643738E+03  0.00000000000E+00 0.  1.
<scales pt_clust_1="13000.00000" pt_clust_2="13000.00000" pt_clust_3="260.22990" pt_clust_4="213.51271"></scales>
<clustering>
<clus scale="  213.513">  2  6  1 -1</clus>
<clus scale="  260.230">  1  5  2 -1</clus>
<clus scale="  373.798">  2  4  1 -1</clus>
<clus scale="  373.798">  1  3  2 -1</clus>
</clustering>
</event>
<event>
 6   2  0.3464723E-02  0.3606445E+03  0.7816531E-02  0.1058329E+00
       21   -1    0    0  505  502  0.00000000000E+00  0.00000000000E+00  0.85791499556E+03  0.85791499556E+03  0.00000000000E+00 0. -1.
       21   -1    0    0  501  503  0.00000000000E+00  0.00000000000E+00 -0.23835994811E+03  0.23835994811E+03  0.00000000000E+00 0. -1.
  1000006    1    1    2  501    0 -0.74208687724E+01  0.35872977254E+02  0.26558853163E+03  0.44088457438E+03  0.35000000000E+03 0.  0.
 -1000006    1    1    2    0  502 -0.65472673546E+02 -0.12389703028E+03  0.35489038764E+03  0.51776860887E+03  0.35000000000E+03 0.  0.
       21    1    1    2  504  503  0.52776833221E+01  0.42328596978E+02 -0.28703486380E+02  0.51414532904E+02  0.00000000000E+00 0. -1.
       21    1    1    2  505  504  0.67615858996E+02  0.45695456050E+02  0.27779614557E+02  0.86207227518E+02  0.00000000000E+00 0. -1.
<scales pt_clust_1="13000.00000" pt_clust_2="13000.00000" pt_clust_3="42.65635" pt_clust_4="85.87500"></scales>
<clustering>
<clus scale="   42.656">  2  5  1 -1</clus>
<clus scale="   85.875">  2  6  1 -1</clus>
<clus scale="  360.644">  2  3  1 -1</clus>
<clus scale="  360.644">  1  3  2 -1</clus>
</clustering>
</event>
<event>
 4   0  0.3464723E-02  0.3815818E+03  0.7816531E-02  0.1050351E+00
       21   -1    0    0  501  502  0.00000000000E+00  0.00000000000E+00  0.15398498664E+03  0.15398498664E+03  0.00000000000E+00 0.  1.
       21   -1    0    0  502  503  0.00000000000E+00  0.00000000000E+00 -0.10884394916E+04  0.10884394916E+04  0.00000000000E+00 0.  1.
  1000006    1    1    2  501    0 -0.95088944825E+02  0.11858655053E+03 -0.24216803033E+03  0.45194029728E+03  0.35000000000E+03 0.  0.
 -1000006    1    1    2    0  503  0.95088944825E+02 -0.11858655053E+03 -0.69228647462E+03  0.79048418096E+03  0.35000000000E+03 0.  0.
<scales pt_clust_1="13000.00000" pt_clust_2="13000.00000"></scales>
<clustering>
<clus scale="  381.582">  1  3  2 -1</clus>
<clus scale="  381.582">  1  3  2 -1</clus>
</clustering>
</event>
<event>
 5   1  0.3464723E-02  0.4903879E+03  0.7816531E-02  0.1016319E+00
       21   -1    0    0  504  502  0.00000000000E+00  0.00000000000E+00  0.29460689964E+03  0.29460689964E+03  0.00000000000E+00 0. -1.
       21   -1    0    0  502  503  0.00000000000E+00  0.00000000000E+00 -0.13659141852E+04  0.13659141852E+04  0.00000000000E+00 0. -1.
  1000006    1    1    2  501    0  0.33436008027E+03 -0.43551525277E+02 -0.14011511635E+03  0.50579209608E+03  0.35000000000E+03 0.  0.
 -1000006    1    1    2    0  503 -0.34625768908E+03 -0.21789193565E+01 -0.97374730585E+03  0.10911383737E+04  0.35000000000E+03 0.  0.
       21    1    1    2  504  501  0.11897608812E+02  0.45730444633E+02  0.42555136667E+02  0.63590615019E+02  0.00000000000E+00 0.  1.
<scales pt_clust_1="13000.00000" pt_clust_2="13000.00000" pt_clust_3="47.25280"></scales>
<clustering>
<clus scale="   47.253">  1  5  2 -1</clus>
<clus scale="  490.388">  2  4  1 -1</clus>
<clus scale="  490.388">  1  3  2 -1</clus>
</clustering>
</event>
<event>
 6   2  0.3464723E-02  0.5107312E+03  0.7816531E-02  0.1011015E+00
       -2   -1    0    0    0  501  0.00000000000E+00  0.00000000000E+00  0.13491652199E+04  0.13491652199E+04  0.00000000000E+00 0.  1.
       21   -1    0    0  502  503  0.00000000000E+00  0.00000000000E+00 -0.64307936385E+03  0.64307936385E+03  0.00000000000E+00 0.  1.
  1000006    1    1    2  502    0  0.16427497123E+03 -0.32982785933E+03 -0.23883235307E+03  0.56152789409E+03  0.35000000000E+03 0.  0.
 -1000006    1    1    2    0  504 -0.23576334322E+03  0.30163884220E+03  0.40765686673E+02  0.52031931190E+03  0.35000000000E+03 0.  0.
       21    1    1    2  504  501  0.36353018337E+02  0.20515763406E+02  0.15933504319E+03  0.16471215644E+03  0.00000000000E+00 0.  1.
       -2    1    1    2    0  503  0.35135353648E+02  0.76732537310E+01  0.74481747924E+03  0.74568522131E+03  0.00000000000E+00 0.  1.
<scales pt_clust_1="13000.00000" pt_clust_2="13000.00000" pt_clust_3="51.04275" pt_clust_4="35.96348"></scales>
<clustering>
<clus scale="   35.963">  1  6  2 -1</clus>
<clus scale="   51.043">  1  5  2 -1</clus>
<clus scale="  510.731">  2  3  1 -1</clus>
<clus scale="  510.731">  2  3  1 -1</clus>
</clustering>
</event>
<event>
 6   2  0.3464723E-02  0.5554310E+03  0.7816531E-02  0.1000245E+00
       21   -1    0    0  504  502  0.00000000000E+00  0.00000000000E+00  0.49586878126E+03  0.49586878126E+03  0.00000000000E+00 0. -1.
       21   -1    0    0  501  503  0.00000000000E+00  0.00000000000E+00 -0.10152443905E+04  0.10152443905E+04  0.00000000000E+00 0.  1.
  1000006    1    1    2  501    0 -0.40436745804E+03  0.84701357526E+02 -0.63116828045E+03  0.83160132235E+03  0.35000000000E+03 0.  0.
 -1000006    1    1    2    0  502  0.39134204402E+03 -0.74777145427E+02  0.13881961775E+03  0.54818893018E+03  0.35000000000E+03 0.  0.
       21    1    1    2  504  505  0.64115821825E+02  0.20423024749E+02 -0.34044914444E+01  0.67376027711E+02  0.00000000000E+00 0. -1.
       21    1    1    2  505  503 -0.51090407808E+02 -0.30347236847E+02 -0.23622455129E+02  0.63946891563E+02  0.00000000000E+00 0. -1.
<scales pt_clust_1="13000.00000" pt_clust_2="13000.00000" pt_clust_3="65.18282" pt_clust_4="59.42377"></scales>
<clustering>
<clus scale="   59.424">  2  6  1 -1</clus>
<clus scale="   65.183">  1  5  2 -1</clus>
<clus scale="  555.431">  1  4  2 -1</clus>
<clus scale="  555.431">  1  3  2 -1</clus>
</clustering>
</event>
<event>
 4   0  0.3464723E-02  0.3531711E+03  0.7816531E-02  0.1061321E+00
       21   -1    0    0  501  502  0.00000000000E+00  0.00000000000E+00  0.20329697596E+03  0.20329697596E+03  0.00000000000E+00 0.  1.
       21   -1    0    0  502  503  0.00000000000E+00  0.00000000000E+00 -0.63241480641E+03  0.63241480641E+03  0.00000000000E+00 0.  1.
  1000006    1    1    2  501    0  0.40848545212E+02  0.23690775219E+02 -0.14236149788E+03  0.38078425986E+03  0.35000000000E+03 0.  0.
 -1000006    1    1    2    0  503 -0.40848545212E+02 -0.23690775219E+02 -0.28675633257E+03  0.45492752252E+03  0.35000000000E+03 0.  0.
<scales pt_clust_1="13000.00000" pt_clust_2="13000.00000"></scales>
<clustering>
<clus scale="  353.171">  1  3  2 -1</clus>
<clus scale="  353.171">  1  3  2 -1</clus>
</clustering>
</event>
<event>
 6   2  0.3464723E-02  0.3709606E+03  0.7816531E-02  0.1054326E+00
       21   -1    0    0  504  502  0.00000000000E+00  0.00000000000E+00  0.29568033813E+04  0.29568033813E+04  0.00000000000E+00 0. -1.
       21   -1    0    0  501  503  0.00000000000E+00  0.00000000000E+00 -0.82260422628E+02  0.82260422628E+02  0.00000000000E+00 0. -1.
  1000006    1    1    2  501    0 -0.11260543259E+03  0.52210358976E+02  0.57541332339E+03  0.68484041774E+03  0.35000000000E+03 0.  0.
 -1000006    1    1    2    0  502  0.11875615554E+03 -0.27005563477E+02  0.16196502607E+04  0.16615051285E+04  0.35000000000E+03 0.  0.
       21    1    1    2  504  505 -0.17936531974E+02  0.48598094239E+02  0.40298525747E+03  0.40630113424E+03  0.00000000000E+00 0. -1.
       21    1    1    2  505  503  0.11785809027E+02 -0.73802889738E+02  0.27649411711E+03  0.28641712349E+03  0.00000000000E+00 0. -1.
<scales pt_clust_1="13000.00000" pt_clust_2="13000.00000" pt_clust_3="51.80245" pt_clust_4="69.14257"></scales>
<clustering>
<clus scale="   51.802">  1  5  2 -1</clus>
<clus scale="   69.143">  1  6  2 -1</clus>
<clus scale="  370.961">  2  3  1 -1</clus>
<clus scale="  370.961">  1  3  2 -1</clus>
</clustering>
</event>
<event>
 6   2  0.3464723E-02  0.3507390E+03  0.7816531E-02  0.1062312E+00
       21   -1    0    0  504  503  0.00000000000E+00  0.00000000000E+00  0.10446039157E+04  0.10446039157E+04  0.00000000000E+00 0.  1.
        2   -1    0    0  503    0  0.00000000000E+00  0.00000000000E+00 -0.55434917661E+03  0.55434917661E+03  0.00000000000E+00 0.  1.
  1000006    1    1    2  501    0  0.56059582395E+01  0.26370313752E+02  0.47300488329E+03  0.58903347938E+03  0.35000000000E+03 0.  0.
 -1000006    1    1    2    0  502  0.16825506696E+02 -0.78208382508E+00  0.21514991501E+03  0.41118511070E+03  0.35000000000E+03 0.  0.
       21    1    1    2  504  501 -0.53251401557E+02 -0.24221023144E+01  0.19591448582E+03  0.20303710030E+03  0.00000000000E+00 0.  1.
        2    1    1    2  502    0  0.30819936622E+02 -0.23166127612E+02 -0.39381454506E+03  0.39569740189E+03  0.00000000000E+00 0.  1.
<scales pt_clust_1="13000.00000" pt_clust_2="13000.00000" pt_clust_3="52.64576" pt_clust_4="38.55565"></scales>
<clustering>
<clus scale="   38.556">  2  6  1 -1</clus>
<clus scale="   52.646">  1  5  2 -1</clus>
<clus scale="  350.739">  2  4  1 -1</clus>
<clus scale="  350.739">  1  3  2 -1</clus>
</clustering>
</event>
<event>
 6   2  0.3464723E-02  0.5753395E+03  0.7816531E-02  0.1005631E+00
        2   -1    0    0  504    0  0.00000000000E+00  0.00000000000E+00  0.28662736458E+04  0.28662736458E+04  0.00000000000E+00 0.  1.
       21   -1    0    0  501  503  0.00000000000E+00  0.00000000000E+00 -0.25658702985E+03  0.25658702985E+03  0.00000000000E+00 0.  1.
  1000006    1    1    2  501    0 -0.19016907364E+03 -0.13043903965E+03  0.21165361765E+03  0.46954858481E+03  0.35000000000E+03 0.  0.
 -1000006    1    1    2    0  502 -0.25538185133E+03 -0.14886618927E+03  0.62384059057E+03  0.77398844613E+03  0.35000000000E+03 0.  0.
       21    1    1    2  504  503 -0.25226387722E+02 -0.40620889679E+02  0.96364065057E+02  0.10757537056E+03  0.00000000000E+00 0.  1.
        2    1    1    2  502    0  0.47077731269E+03  0.31992611860E+03  0.16778283427E+04  0.17717482741E+04  0.00000000000E+00 0.  1.
<scales pt_clust_1="13000.00000" pt_clust_2="13000.00000" pt_clust_3="47.81660" pt_clust_4="456.63497"></scales>
<clustering>
<clus scale="   47.817">  1  5  2 -1</clus>
<clus scale="  422.139">  2  3  1 -1</clus>
<clus scale="  456.635">  1  6  2 -1</clus>
<clus scale="  575.339">  2  3  1 -1</clus>
</clustering>
</event>
<event>
 6   2  0.3464723E-02  0.4722264E+03  0.7816531E-02  0.1021294E+00
       21   -1    0    0  504  502  0.00000000000E+00  0.00000000000E+00  0.97674316007E+03  0.97674316007E+03  0.00000000000E+00 0.  1.
       21   -1    0    0  501  503  0.00000000000E+00  0.00000000000E+00 -0.45095918920E+03  0.45095918920E+03  0.00000000000E+00 0.  1.
  1000006    1    1    2  501    0 -0.31160442266E+03  0.32365964337E+02 -0.10740007235E+03  0.48185023338E+03  0.35000000000E+03 0.  0.
 -1000006    1    1    2    0  505  0.31343179393E+03 -0.10533211460E+03  0.27097350629E+03  0.55250428498E+03  0.35000000000E+03 0.  0.
       21    1    1    2  504  503 -0.55133857877E+02  0.35719551652E+02  0.28465157682E+03  0.29213378586E+03  0.00000000000E+00 0. -1.
       21    1    1    2  505  502  0.53306486614E+02  0.37246598607E+02  0.77558960111E+02  0.10121404506E+03  0.00000000000E+00 0.  1.
<scales pt_clust_1="13000.00000" pt_clust_2="13000.00000" pt_clust_3="60.96507" pt_clust_4="65.02992"></scales>
<clustering>
<clus scale="   65.030">  1  6  2 -1</clus>
<clus scale="   60.965">  1  5  2 -1</clus>
<clus scale="  472.226">  1  4  2 -1</clus>
<clus scale="  472.226">  1  3  2 -1</clus>
</clustering>
</event>
<event>
 6   2  0.3464723E-02  0.3683722E+03  0.7816531E-02  0.1055317E+00
       21   -1    0    0  503  502  0.00000000000E+00  0.00000000000E+00  0.11551308904E+04  0.11551308904E+04  0.00000000000E+00 0. -1.
       21   -1    0    0  504  503  0.00000000000E+00  0.00000000000E+00 -0.24264987952E+03  0.24264987952E+03  0.00000000000E+00 0. -1.
  1000006    1    1    2  501    0  0.22758760260E+01 -0.42765725626E+02  0.15940249146E+03  0.38696671844E+03  0.35000000000E+03 0.  0.
 -1000006    1    1    2    0  505  0.19147606238E+03  0.58556446814E+02  0.39682330523E+03  0.56573905248E+03  0.35000000000E+03 0.  0.
       21    1    1    2  504  501 -0.15292062480E+03 -0.30334259319E+01  0.94374215653E+02  0.17972315305E+03  0.00000000000E+00 0. -1.
       21    1    1    2  505  502 -0.40831313602E+02 -0.12757295256E+02  0.26188099850E+03  0.26535184591E+03  0.00000000000E+00 0.  1.
<scales pt_clust_1="13000.00000" pt_clust_2="13000.00000" pt_clust_3="159.27578" pt_clust_4="42.77785"></scales>
<clustering>
<clus scale="   42.778">  1  6  2 -1</clus>
<clus scale="  159.276">  2  5  1 -1</clus>
<clus scale="  368.372">  2  3  1 -1</clus>
<clus scale="  368.372">  1  3  2 -1</clus>
</clustering>
</event>
<event>
 6   2  0.3464723E-02  0.4024820E+03  0.7816531E-02  0.1042924E+00
       21   -1    0    0  504  502  0.00000000000E+00  0.00000000000E+00  0.86197264794E+03  0.86197264794E+03  0.00000000000E+00 0.  1.
       21   -1    0    0  505  503  0.00000000000E+00  0.00000000000E+00 -0.55575829179E+03  0.55575829179E+03  0.00000000000E+00 0.  1.
  1000006    1    1    2  501    0 -0.95678743003E+02  0.19357618742E+03  0.38912504854E+03  0.56616646457E+03  0.35000000000E+03 0.  0.
 -1000006    1    1    2    0  503  0.98891494594E+02 -0.13794149901E+03 -0.13182065454E+03  0.41071166262E+03  0.35000000000E+03 0.  0.
       21    1    1    2  504  501 -0.19336174028E+02 -0.23409723363E+02  0.24226934480E+03  0.24416457197E+03  0.00000000000E+00 0.  1.
       21    1    1    2  505  502  0.16123422436E+02 -0.32224965048E+02 -0.19335938265E+03  0.19668824057E+03  0.00000000000E+00 0.  1.
<scales pt_clust_1="13000.00000" pt_clust_2="13000.00000" pt_clust_3="30.36285" pt_clust_4="36.06662"></scales>
<clustering>
<clus scale="   30.363">  1  5  2 -1</clus>
<clus scale="   36.067">  2  6  1 -1</clus>
<clus scale="  402.482">  1  3  2 -1</clus>
<clus scale="  402.482">  1  3  2 -1</clus>
</clustering>
</event>
<event>
 5   1  0.3464723E-02  0.5339422E+03  0.7816531E-02  0.1015174E+00
       -2   -1    0    0    0  501  0.00000000000E+00  0.00000000000E+00  0.14778984914E+04  0.14778984914E+04  0.00000000000E+00 0.  1.
       21   -1    0    0  502  503  0.00000000000E+00  0.00000000000E+00 -0.47096515043E+03  0.47096515043E+03  0.00000000000E+00 0.  1.
  1000006    1    1    2  502    0  0.10369436249E+03  0.14671456162E+03  0.13837864245E+03  0.41704476029E+03  0.35000000000E+03 0.  0.
 -1000006    1    1    2    0  501 -0.68335808610E+02  0.27530602676E+03 -0.11156046032E+03  0.46412167307E+03  0.35000000000E+03 0.  0.
       -2    1    1    2    0  503 -0.35358553880E+02 -0.42202058838E+03  0.98011515885E+03  0.10676972085E+04  0.00000000000E+00 0.  1.
<scales pt_clust_1="13000.00000" pt_clust_2="13000.00000" pt_clust_3="403.22986"></scales>
<clustering>
<clus scale="  393.418">  2  3  1 -1</clus>
<clus scale="  403.230">  1  5  2 -1</clus>
<clus scale="  533.942">  2  3  1 -1</clus>
</clustering>
</event>
<event>
 4   0  0.3464723E-02  0.5565494E+03  0.7816531E-02  0.9999893E-01
        2   -1    0    0  502    0  0.00000000000E+00  0.00000000000E+00  0.38066902753E+03  0.38066902753E+03  0.00000000000E+00 0.  1.
       -2   -1    0    0    0  501  0.00000000000E+00  0.00000000000E+00 -0.95791646300E+03  0.95791646300E+03  0.00000000000E+00 0. -1.
  1000006    1    1    2  502    0 -0.27471461117E+03 -0.33433379766E+03 -0.28923505766E+02  0.55730043516E+03  0.35000000000E+03 0.  0.
 -1000006    1    1    2    0  501  0.27471461117E+03  0.33433379766E+03 -0.54832392971E+03  0.78128505536E+03  0.35000000000E+03 0.  0.
<scales pt_clust_1="13000.00000" pt_clust_2="13000.00000"></scales>
<clustering>
<clus scale=" 1044.556">  3  4 -1 -1</clus>
<clus scale="  556.549">  1  3  2 -1</clus>
</clustering>
</event>
<event>
 5   1  0.3464723E-02  0.3747474E+03  0.7816531E-02  0.1052892E+00
       21   -1    0    0  503  502  0.00000000000E+00  0.00000000000E+00  0.43581474942E+03  0.43581474942E+03  0.00000000000E+00 0.  1.
       21   -1    0    0  504  503  0.00000000000E+00  0.00000000000E+00 -0.20371737107E+04  0.20371737107E+04  0.00000000000E+00 0. -1.
  1000006    1    1    2  501    0 -0.12696402077E+03  0.56089141058E+02 -0.33914653012E+03  0.50674078502E+03  0.35000000000E+03 0.  0.
 -1000006    1    1    2    0  502  0.92875710075E+02 -0.97718393846E+02  0.25149773665E+03  0.45158154696E+03  0.35000000000E+03 0.  0.
       21    1    1    2  504  501  0.34088310699E+02  0.41629252788E+02 -0.15137101678E+04  0.15146661281E+04  0.00000000000E+00 0. -1.
<scales pt_clust_1="13000.00000" pt_clust_2="13000.00000" pt_clust_3="53.80527"></scales>
<clustering>
<clus scale="   53.805">  2  5  1 -1</clus>
<clus scale="  374.747">  2  3  1 -1</clus>
<clus scale="  374.747">  1  3  2 -1</clus>
</clustering>
</event>
<event>
 5   1  0.3464723E-02  0.5684071E+03  0.7816531E-02  0.1008593E+00
       21   -1    0    0  502  503  0.00000000000E+00  0.00000000000E+00  0.26172060364E+04  0.26172060364E+04  0.00000000000E+00 0. -1.
        2   -1    0    0  501    0  0.00000000000E+00  0.00000000000E+00 -0.30437718986E+03  0.30437718986E+03  0.00000000000E+00 0. -1.
  1000006    1    1    2  501    0  0.15125697410E+03  0.37325068309E+03  0.68952956262E+03  0.87186338515E+03  0.35000000000E+03 0.  0.
 -1000006    1    1    2    0  503  0.18785587265E+03 -0.40545492118E+02  0.15092192196E+04  0.15611458672E+04  0.35000000000E+03 0.  0.
        2    1    1    2  502    0 -0.33911284675E+03 -0.33270519097E+03  0.11408006433E+03  0.48857397393E+03  0.00000000000E+00 0. -1.
<scales pt_clust_1="13000.00000" pt_clust_2="13000.00000" pt_clust_3="447.86895"></scales>
<clustering>
<clus scale="  399.292">  1  4  2 -1</clus>
<clus scale="  447.869">  2  5  1 -1</clus>
<clus scale="  568.407">  1  3  2 -1</clus>
</clustering>
</event>
<event>
 5   1  0.3464723E-02  0.4233838E+03  0.7816531E-02  0.1035971E+00
       21   -1    0    0  501  502  0.00000000000E+00  0.00000000000E+00  0.45289168444E+03  0.45289168444E+03  0.00000000000E+00 0.  1.
       21   -1    0    0  504  503  0.00000000000E+00  0.00000000000E+00 -0.54443647892E+03  0.54443647892E+03  0.00000000000E+00 0.  1.
  1000006    1    1    2  501    0  0.36141032832E+02 -0.28891212140E+03  0.10774538841E+02  0.45540364385E+03  0.35000000000E+03 0.  0.
 -1000006    1    1    2    0  503 -0.77147071053E+02  0.19364589715E+03 -0.14121846517E+03  0.43115317343E+03  0.35000000000E+03 0.  0.
       21    1    1    2  504  502  0.41006038222E+02  0.95266224254E+02  0.38899131853E+02  0.11077134608E+03  0.00000000000E+00 0.  1.
<scales pt_clust_1="13000.00000" pt_clust_2="13000.00000" pt_clust_3="103.71667"></scales>
<clustering>
<clus scale="  103.717">  1  5  2 -1</clus>
<clus scale="  423.384">  2  4  1 -1</clus>
<clus scale="  423.384">  1  3  2 -1</clus>
</clustering>
</event>
<event>
 6   2  0.3464723E-02  0.4142287E+03  0.7816531E-02  0.1038961E+00
        2   -1    0    0  501    0  0.00000000000E+00  0.00000000000E+00  0.19251333749E+04  0.19251333749E+04  0.00000000000E+00 0.  1.
       21   -1    0    0  504  503  0.00000000000E+00  0.00000000000E+00 -0.58263305316E+03  0.58263305316E+03  0.00000000000E+00 0.  1.
  1000006    1    1    2  501    0 -0.22389593071E+03 -0.82684576949E+02  0.21548754231E+03  0.47529044588E+03  0.35000000000E+03 0.  0.
 -1000006    1    1    2    0  503  0.13978950946E+03  0.17551338024E+03 -0.30870140972E+03  0.51782488736E+03  0.35000000000E+03 0.  0.
       21    1    1    2  504  502  0.39960144603E+02 -0.70192098678E+02  0.27377304874E+01  0.80816081578E+02  0.00000000000E+00 0.  1.
        2    1    1    2  502    0  0.44146276644E+02 -0.22636704618E+02  0.14329764586E+04  0.14338350132E+04  0.00000000000E+00 0.  1.
<scales pt_clust_1="13000.00000" pt_clust_2="13000.00000" pt_clust_3="84.32822" pt_clust_4="49.61163"></scales>
<clustering>
<clus scale="   49.612">  1  6  2 -1</clus>
<clus scale="   84.328">  1  5  2 -1</clus>
<clus scale="  414.229">  2  4  1 -1</clus>
<clus scale="  414.229">  2  3  1 -1</clus>
</clustering>
</event>
<event>
 5   1  0.3464723E-02  0.3635558E+03  0.7816531E-02  0.1057185E+00
       21   -1    0    0  502  503  0.00000000000E+00  0.00000000000E+00  0.14202138706E+03  0.14202138706E+03  0.00000000000E+00 0. -1.
        2   -1    0    0  501    0  0.00000000000E+00  0.00000000000E+00 -0.18323925250E+04  0.18323925250E+04  0.00000000000E+00 0. -1.
  1000006    1    1    2  501    0 -0.11693685158E+03 -0.20869776093E+03 -0.73570541612E+03  0.84911214924E+03  0.35000000000E+03 0.  0.
 -1000006    1    1    2    0  503 -0.39595478983E+01 -0.42768681525E+01 -0.53269385436E+03  0.63741408213E+03  0.35000000000E+03 0.  0.
        2    1    1    2  502    0  0.12089639948E+03  0.21297462908E+03 -0.42197186747E+03  0.48788768070E+03  0.00000000000E+00 0. -1.
<scales pt_clust_1="13000.00000" pt_clust_2="13000.00000" pt_clust_3="244.89617"></scales>
<clustering>
<clus scale="  244.896">  2  5  1 -1</clus>
<clus scale="  363.556">  2  3  1 -1</clus>
<clus scale="  363.556">  1  3  2 -1</clus>
</clustering>
</event>
<event>
 5   1  0.3464723E-02  0.3827851E+03  0.7816531E-02  0.1049909E+00
       21   -1    0    0  501  502  0.00000000000E+00  0.00000000000E+00  0.41785747298E+03  0.41785747298E+03  0.00000000000E+00 0. -1.
       21   -1    0    0  504  503  0.00000000000E+00  0.00000000000E+00 -0.45931835657E+03  0.45931835657E+03  0.00000000000E+00 0. -1.
  1000006    1    1    2  501    0 -0.10991047984E+03  0.89227811497E+02  0.54376283417E+02  0.38144291332E+03  0.35000000000E+03 0.  0.
 -1000006    1    1    2    0  503  0.18185451902E+03 -0.36410967665E+02 -0.65583931944E+02  0.40149480293E+03  0.35000000000E+03 0.  0.
       21    1    1    2  504  502 -0.71944039181E+02 -0.52816843833E+02 -0.30253235070E+02  0.94238113300E+02  0.00000000000E+00 0. -1.
<scales pt_clust_1="13000.00000" pt_clust_2="13000.00000" pt_clust_3="89.25001"></scales>
<clustering>
<clus scale="   89.250">  2  5  1 -1</clus>
<clus scale="  382.785">  2  4  1 -1</clus>
<clus scale="  382.785">  1  3  2 -1</clus>
</clustering>
</event>
<event>
 5   1  0.3464723E-02  0.4158134E+03  0.7816531E-02  0.1038438E+00
       21   -1    0    0  503  502  0.00000000000E+00  0.00000000000E+00  0.39991288944E+03  0.39991288944E+03  0.00000000000E+00 0.  1.
       21   -1    0    0  501  503  0.00000000000E+00  0.00000000000E+00 -0.72759823378E+03  0.72759823378E+03  0.00000000000E+00 0.  1.
  1000006    1    1    2  501    0  0.21083244796E+03 -0.93542669103E+02 -0.45366281807E+03  0.61766536616E+03  0.35000000000E+03 0.  0.
 -1000006    1    1    2    0  504 -0.17771000033E+03  0.11090079888E+03  0.32527880822E+02  0.40919175754E+03  0.35000000000E+03 0.  0.
       21    1    1    2  504  502 -0.33122447634E+02 -0.17358129775E+02  0.93449592904E+02  0.10065399953E+03  0.00000000000E+00 0.  1.
<scales pt_clust_1="13000.00000" pt_clust_2="13000.00000" pt_clust_3="37.39520"></scales>
<clustering>
<clus scale="   37.395">  1  5  2 -1</clus>
<clus scale="  415.813">  1  4  2 -1</clus>
<clus scale="  415.813">  1  3  2 -1</clus>
</clustering>
</event>
<event>
 6   2  0.3464723E-02  0.4339809E+03  0.7816531E-02  0.1032610E+00
       21   -1    0    0  504  502  0.00000000000E+00  0.00000000000E+00  0.41677066908E+03  0.41677066908E+03  0.00000000000E+00 0.  1.
       21   -1    0    0  501  503  0.00000000000E+00  0.00000000000E+00 -0.74757483913E+03  0.74757483913E+03  0.00000000000E+00 0.  1.
  1000006    1    1    2  501    0  0.25740413214E+03 -0.56966054700E+02 -0.19685536281E+03  0.48036866311E+03  0.35000000000E+03 0.  0.
 -1000006    1    1    2    0  502 -0.23474245407E+03  0.97367914811E+02  0.64368943750E+02  0.43729611420E+03  0.35000000000E+03 0.  0.
       21    1    1    2  504  505 -0.54069450794E+02 -0.46912635862E+02 -0.33976000346E+02  0.79238055959E+02  0.00000000000E+00 0.  1.
       21    1    1    2  505  503  0.31407772721E+02  0.65107757510E+01 -0.16434175064E+03  0.16744267494E+03  0.00000000000E+00 0.  1.
<scales pt_clust_1="13000.00000" pt_clust_2="13000.00000" pt_clust_3="68.87723" pt_clust_4="32.07551"></scales>
<clustering>
<clus scale="   32.076">  2  6  1 -1</clus>
<clus scale="   68.877">  2  5  1 -1</clus>
<clus scale="  433.981">  2  3  1 -1</clus>
<clus scale="  433.981">  1  3  2 -1</clus>
</clustering>
</event>
<event>
 4   0  0.3464723E-02  0.3593518E+03  0.7816531E-02  0.1058841E+00
       21   -1    0    0  501  502  0.00000000000E+00  0.00000000000E+00  0.49987089762E+03  0.49987089762E+03  0.00000000000E+00 0. -1.
       21   -1    0    0  502  503  0.00000000000E+00  0.00000000000E+00 -0.30590208755E+03  0.30590208755E+03  0.00000000000E+00 0. -1.
  1000006    1    1    2  501    0  0.85822228613E+01  0.80993994587E+02  0.25585701450E+03  0.44113092567E+03  0.35000000000E+03 0.  0.
 -1000006    1    1    2    0  503 -0.85822228613E+01 -0.80993994587E+02 -0.61888204431E+02  0.36464205950E+03  0.35000000000E+03 0.  0.
<scales pt_clust_1="13000.00000" pt_clust_2="13000.00000"></scales>
<clustering>
<clus scale="  359.352">  1  3  2 -1</clus>
<clus scale="  359.352">  1  3  2 -1</clus>
</clustering>
</event>
<event>
 6   2  0.3464723E-02  0.3663280E+03  0.7816531E-02  0.1056106E+00
       21   -1    0    0  501  503  0.00000000000E+00  0.00000000000E+00  0.64055797646E+03  0.64055797646E+03  0.00000000000E+00 0. -1.
        1   -1    0    0  504    0  0.00000000000E+00  0.00000000000E+00 -0.12852928441E+04  0.12852928441E+04  0.00000000000E+00 0. -1.
  1000006    1    1    2  501    0  0.13846806460E+03  0.74724206873E+02  0.17107087667E+03  0.42014563767E+03  0.35000000000E+03 0.  0.
 -1000006    1    1    2    0  502  0.23165549563E+03 -0.16524018491E+03  0.79168529777E+02  0.45796969711E+03  0.35000000000E+03 0.  0.
       21    1    1    2  504  503 -0.24173825751E+02 -0.22702621830E+02  0.35508822062E+02  0.48586616816E+02  0.00000000000E+00 0. -1.
        1    1    1    2  502    0 -0.34594973449E+03  0.11321859987E+03 -0.93048309619E+03  0.99914886901E+03  0.00000000000E+00 0. -1.
<scales pt_clust_1="13000.00000" pt_clust_2="13000.00000" pt_clust_3="33.16297" pt_clust_4="364.92171"></scales>
<clustering>
<clus scale="   33.163">  1  5  2 -1</clus>
<clus scale="  364.922">  2  6  1 -1</clus>
<clus scale="  366.328">  1  3  2 -1</clus>
<clus scale="  366.328">  1  3  2 -1</clus>
</clustering>
</event>
<event>
 4   0  0.3464723E-02  0.3519050E+03  0.7816531E-02  0.1061836E+00
       21   -1    0    0  503  502  0.00000000000E+00  0.00000000000E+00  0.89476510219E+03  0.89476510219E+03  0.00000000000E+00 0.  1.
       21   -1    0    0  501  503  0.00000000000E+00  0.00000000000E+00 -0.14780494934E+03  0.14780494934E+03  0.00000000000E+00 0.  1.
  1000006    1    1    2  501    0  0.32530437731E+02  0.16701097062E+02  0.24199816752E+03  0.42708344513E+03  0.35000000000E+03 0.  0.
 -1000006    1    1    2    0  502 -0.32530437731E+02 -0.16701097062E+02  0.50496198533E+03  0.61548660640E+03  0.35000000000E+03 0.  0.
<scales pt_clust_1="13000.00000" pt_clust_2="13000.00000"></scales>
<clustering>
<clus scale="  351.905">  2  3  1 -1</clus>
<clus scale="  351.905">  1  3  2 -1</clus>
</clustering>
</event>
<event>
 4   0  0.3464723E-02  0.4451094E+03  0.7816531E-02  0.1029191E+00
       21   -1    0    0  501  502  0.00000000000E+00  0.00000000000E+00  0.45048639424E+03  0.45048639424E+03  0.00000000000E+00 0.  1.
       21   -1    0    0  502  503  0.00000000000E+00  0.00000000000E+00 -0.44716830878E+03  0.44716830878E+03  0.00000000000E+00 0.  1.
  1000006    1    1    2  501    0 -0.25336886616E+03  0.10689537310E+03  0.59286130835E+02  0.44904036393E+03  0.35000000000E+03 0.  0.
 -1000006    1    1    2    0  503  0.25336886616E+03 -0.10689537310E+03 -0.55968045376E+02  0.44861433909E+03  0.35000000000E+03 0.  0.
<scales pt_clust_1="13000.00000" pt_clust_2="13000.00000"></scales>
<clustering>
<clus scale="  445.109">  1  3  2 -1</clus>
<clus scale="  445.109">  1  3  2 -1</clus>
</clustering>
</event>
<event>
 5   1  0.3464723E-02  0.3560317E+03  0.7816531E-02  0.1060166E+00
       21   -1    0    0  504  502  0.00000000000E+00  0.00000000000E+00  0.10723365976E+04  0.10723365976E+04  0.00000000000E+00 0.  1.
       21   -1    0    0  501  503  0.00000000000E+00  0.00000000000E+00 -0.16435146694E+03  0.16435146694E+03  0.00000000000E+00 0.  1.
  1000006    1    1    2  501    0 -0.18711353749E+02  0.33016140125E+02  0.35457647901E+03  0.49966454721E+03  0.35000000000E+03 0.  0.
 -1000006    1    1    2    0  502  0.65072849567E+02 -0.56095751651E+02  0.57685192235E+03  0.68017596945E+03  0.35000000000E+03 0.  0.
       21    1    1    2  504  503 -0.46361495819E+02  0.23079611526E+02 -0.23443270676E+02  0.56847547904E+02  0.00000000000E+00 0.  1.
<scales pt_clust_1="13000.00000" pt_clust_2="13000.00000" pt_clust_3="51.78858"></scales>
<clustering>
<clus scale="   51.789">  2  5  1 -1</clus>
<clus scale="  356.032">  1  4  2 -1</clus>
<clus scale="  356.032">  1  3  2 -1</clus>
</clustering>
</event>
<event>
 5   1  0.3464723E-02  0.3820164E+03  0.7816531E-02  0.1050191E+00
       21   -1    0    0  501  503  0.00000000000E+00  0.00000000000E+00  0.14237339672E+04  0.14237339672E+04  0.00000000000E+00 0. -1.
        2   -1    0    0  503    0  0.00000000000E+00  0.00000000000E+00 -0.58066314764E+03  0.58066314764E+03  0.00000000000E+00 0.  1.
  1000006    1    1    2  501    0  0.16485183043E+03 -0.17882252631E+03  0.10089241451E+04  0.10952541041E+04  0.35000000000E+03 0.  0.
 -1000006    1    1    2    0  502  0.28409622833E+02 -0.39861440719E+02  0.22679096879E+03  0.41991687826E+03  0.35000000000E+03 0.  0.
        2    1    1    2  502    0 -0.19326145326E+03  0.21868396703E+03 -0.39264429439E+03  0.48922613245E+03  0.00000000000E+00 0.  1.
<scales pt_clust_1="13000.00000" pt_clust_2="13000.00000" pt_clust_3="291.84357"></scales>
<clustering>
<clus scale="  291.844">  2  5  1 -1</clus>
<clus scale="  382.016">  2  4  1 -1</clus>
<clus scale="  382.016">  1  3  2 -1</clus>
</clustering>
</event>
<event>
 4   0  0.3464723E-02  0.3878191E+03  0.7816531E-02  0.1048081E+00
       21   -1    0    0  501  502  0.00000000000E+00  0.00000000000E+00  0.16384643809E+04  0.16384643809E+04  0.00000000000E+00 0. -1.
       21   -1    0    0  502  503  0.00000000000E+00  0.00000000000E+00 -0.10693370606E+03  0.10693370606E+03  0.00000000000E+00 0. -1.
  1000006    1    1    2  501    0 -0.75513602637E+02  0.14900114963E+03  0.10941209824E+04  0.11608205593E+04  0.35000000000E+03 0.  0.
 -1000006    1    1    2    0  503  0.75513602637E+02 -0.14900114963E+03  0.43740969237E+03  0.58457752758E+03  0.35000000000E+03 0.  0.
<scales pt_clust_1="13000.00000" pt_clust_2="13000.00000"></scales>
<clustering>
<clus scale="  387.819">  1  3  2 -1</clus>
<clus scale="  387.819">  1  3  2 -1</clus>
</clustering>
</event>
<event>
 6   2  0.3464723E-02  0.3648160E+03  0.7816531E-02  0.1056693E+00
       21   -1    0    0  504  502  0.00000000000E+00  0.00000000000E+00  0.59231830791E+03  0.59231830791E+03  0.00000000000E+00 0. -1.
       21   -1    0    0  502  503  0.00000000000E+00  0.00000000000E+00 -0.16424011114E+04  0.16424011114E+04  0.00000000000E+00 0.  1.
  1000006    1    1    2  501    0  0.67525080935E+02 -0.10587722918E+03  0.95635703884E+02  0.38394766840E+03  0.35000000000E+03 0.  0.
 -1000006    1    1    2    0  505 -0.81429341257E+02  0.70281421365E+02 -0.62862711372E+02  0.37151303650E+03  0.35000000000E+03 0.  0.
       21    1    1    2  504  501 -0.23804954570E+02  0.63821489902E+02  0.19190116623E+03  0.20363181489E+03  0.00000000000E+00 0. -1.
       21    1    1    2  505  503  0.37709214892E+02 -0.28225682086E+02 -0.12747569622E+04  0.12756268995E+04  0.00000000000E+00 0.  1.
<scales pt_clust_1="13000.00000" pt_clust_2="13000.00000" pt_clust_3="67.48482" pt_clust_4="47.10280"></scales>
<clustering>
<clus scale="   47.103">  2  6  1 -1</clus>
<clus scale="   67.485">  1  5  2 -1</clus>
<clus scale="  364.816">  2  4  1 -1</clus>
<clus scale="  364.816">  1  3  2 -1</clus>
</clustering>
</event>
<event>
 6   2  0.3464723E-02  0.3734844E+03  0.7816531E-02  0.1053369E+00
       21   -1    0    0  504  502  0.00000000000E+00  0.00000000000E+00  0.11870211494E+03  0.11870211494E+03  0.00000000000E+00 0.  1.
       21   -1    0    0  501  503  0.00000000000E+00  0.00000000000E+00 -0.24124158248E+04  0.24124158248E+04  0.00000000000E+00 0.  1.
  1000006    1    1    2  501    0  0.63583143469E+02 -0.13419723151E+03 -0.15201440931E+04  0.15669683394E+04  0.35000000000E+03 0.  0.
 -1000006    1    1    2    0  505  0.65220330743E+01  0.10011821081E+03 -0.59425303212E+03  0.69692385469E+03  0.35000000000E+03 0.  0.
       21    1    1    2  504  503 -0.66813396239E+02  0.65919670531E+02 -0.20546831892E+03  0.22589082088E+03  0.00000000000E+00 0. -1.
       21    1    1    2  505  502 -0.32917803039E+01 -0.31840649840E+02  0.26151734240E+02  0.41334924743E+02  0.00000000000E+00 0.  1.
<scales pt_clust_1="13000.00000" pt_clust_2="13000.00000" pt_clust_3="91.50170" pt_clust_4="32.01035"></scales>
<clustering>
<clus scale="   32.010">  1  6  2 -1</clus>
<clus scale="   91.502">  1  5  2 -1</clus>
<clus scale="  373.484">  1  4  2 -1</clus>
<clus scale="  373.484">  1  3  2 -1</clus>
</clustering>
</event>
<event>
 6   2  0.3464723E-02  0.6780770E+03  0.7816531E-02  0.9755476E-01
       21   -1    0    0  501  502  0.00000000000E+00  0.00000000000E+00  0.32265827772E+03  0.32265827772E+03  0.00000000000E+00 0.  1.
       21   -1    0    0  505  503  0.00000000000E+00  0.00000000000E+00 -0.21184719760E+04  0.21184719760E+04  0.00000000000E+00 0. -1.
  1000006    1    1    2  501    0 -0.96583651020E+01  0.60084479459E+03 -0.70035037845E+03  0.98696423633E+03  0.35000000000E+03 0.  0.
 -1000006    1    1    2    0  504 -0.16176049602E+03 -0.55012086792E+03 -0.74935093131E+03  0.10063926896E+04  0.35000000000E+03 0.  0.
       21    1    1    2  504  503 -0.47821329905E+02 -0.42979881685E+02 -0.88871676069E+02  0.10969195336E+03  0.00000000000E+00 0. -1.
       21    1    1    2  505  502  0.21924019102E+03 -0.77440449840E+01 -0.25724071242E+03  0.33808137440E+03  0.00000000000E+00 0.  1.
<scales pt_clust_1="13000.00000" pt_clust_2="13000.00000" pt_clust_3="64.29735" pt_clust_4="212.65719"></scales>
<clustering>
<clus scale="   64.297">  2  5  1 -1</clus>
<clus scale="  212.657">  2  6  1 -1</clus>
<clus scale="  678.077">  1  3  2 -1</clus>
<clus scale="  678.077">  1  3  2 -1</clus>
</clustering>
</event>
<event>
 6   2  0.3464723E-02  0.3909164E+03  0.7816531E-02  0.1046971E+00
       21   -1    0    0  501  502  0.00000000000E+00  0.00000000000E+00  0.70708887862E+03  0.70708887862E+03  0.00000000000E+00 0. -1.
       21   -1    0    0  504  503  0.00000000000E+00  0.00000000000E+00 -0.37859757808E+03  0.37859757808E+03  0.00000000000E+00 0. -1.
  1000006    1    1    2  501    0  0.16103987620E+03  0.11643484815E+03  0.35552995260E+03  0.53702184573E+03  0.35000000000E+03 0.  0.
 -1000006    1    1    2    0  503 -0.17159313155E+03 -0.17442792839E+02 -0.11172488853E+03  0.40587055145E+03  0.35000000000E+03 0.  0.
       21    1    1    2  504  505 -0.17082548190E+02 -0.60480516674E+02  0.67868575810E+02  0.92497837446E+02  0.00000000000E+00 0. -1.
       21    1    1    2  505  502  0.27635803537E+02 -0.38511538635E+02  0.16817660655E+02  0.50296222076E+02  0.00000000000E+00 0. -1.
<scales pt_clust_1="13000.00000" pt_clust_2="13000.00000" pt_clust_3="66.51108" pt_clust_4="47.40123"></scales>
<clustering>
<clus scale="   47.401">  1  6  2 -1</clus>
<clus scale="   66.511">  1  5  2 -1</clus>
<clus scale="  390.916">  1  3  2 -1</clus>
<clus scale="  390.916">  1  3  2 -1</clus>
</clustering>
</event>
<event>
 5   1  0.3464723E-02  0.3703738E+03  0.7816531E-02  0.1054550E+00
       21   -1    0    0  504  502  0.00000000000E+00  0.00000000000E+00  0.51232235405E+03  0.51232235405E+03  0.00000000000E+00 0. -1.
       21   -1    0    0  501  503  0.00000000000E+00  0.00000000000E+00 -0.44004934319E+03  0.44004934319E+03  0.00000000000E+00 0. -1.
  1000006    1    1    2  501    0 -0.82254621944E+02  0.67661806371E+02 -0.20671367782E+03  0.42020767184E+03  0.35000000000E+03 0.  0.
 -1000006    1    1    2    0  502  0.13918551341E+03 -0.97080273562E+02  0.24374406647E+03  0.45902979925E+03  0.35000000000E+03 0.  0.
       21    1    1    2  504  503 -0.56930891469E+02  0.29418467191E+02  0.35242622211E+02  0.73134226157E+02  0.00000000000E+00 0.  1.
<scales pt_clust_1="13000.00000" pt_clust_2="13000.00000" pt_clust_3="64.08255"></scales>
<clustering>
<clus scale="   64.083">  1  5  2 -1</clus>
<clus scale="  370.374">  2  3  1 -1</clus>
<clus scale="  370.374">  1  3  2 -1</clus>
</clustering>
</event>
<event>
 6   2  0.3464723E-02  0.4180826E+03  0.7816531E-02  0.1037692E+00
       21   -1    0    0  504  502  0.00000000000E+00  0.00000000000E+00  0.52858039170E+03  0.52858039170E+03  0.00000000000E+00 0. -1.
       21   -1    0    0  501  503  0.00000000000E+00  0.00000000000E+00 -0.66475391568E+03  0.66475391568E+03  0.00000000000E+00 0. -1.
  1000006    1    1    2  501    0  0.14773206653E+02 -0.12661454729E+03 -0.64411575474E+02  0.37801897079E+03  0.35000000000E+03 0.  0.
 -1000006    1    1    2    0  505 -0.29807195764E+02  0.32901407336E+03 -0.21017426386E+03  0.52517801798E+03  0.35000000000E+03 0.  0.
       21    1    1    2  504  503 -0.22947012169E+02 -0.20266487097E+03  0.77165083642E+02  0.21806894650E+03  0.00000000000E+00 0. -1.
       21    1    1    2  505  502  0.37981001279E+02  0.26534490896E+00  0.61247231705E+02  0.72068372103E+02  0.00000000000E+00 0. -1.
<scales pt_clust_1="13000.00000" pt_clust_2="13000.00000" pt_clust_3="202.86826" pt_clust_4="37.98193"></scales>
<clustering>
<clus scale="   37.982">  1  6  2 -1</clus>
<clus scale="  202.868">  1  5  2 -1</clus>
<clus scale="  418.083">  1  4  2 -1</clus>
<clus scale="  418.083">  1  3  2 -1</clus>
</clustering>
</event>
<event>
 6   2  0.3464723E-02  0.8586421E+03  0.7816531E-02  0.9478811E-01
        1   -1    0    0  504    0  0.00000000000E+00  0.00000000000E+00  0.99823351671E+03  0.99823351671E+03  0.00000000000E+00 0. -1.
       21   -1    0    0  501  503  0.00000000000E+00  0.00000000000E+00 -0.19183163616E+04  0.19183163616E+04  0.00000000000E+00 0.  1.
  1000006    1    1    2  501    0  0.21909582095E+03 -0.71724813205E+03 -0.10967444865E+04  0.13739710078E+04  0.35000000000E+03 0.  0.
 -1000006    1    1    2    0  502 -0.21134948957E+03  0.81226165463E+03 -0.19987628885E+03  0.93106827525E+03  0.35000000000E+03 0.  0.
       21    1    1    2  504  503  0.36464287889E+02 -0.11628478291E+02 -0.10970653573E+03  0.11619117773E+03  0.00000000000E+00 0. -1.
        1    1    1    2  502    0 -0.44210619272E+02 -0.83385044290E+02  0.48624446619E+03  0.49531941751E+03  0.00000000000E+00 0. -1.
<scales pt_clust_1="13000.00000" pt_clust_2="13000.00000" pt_clust_3="38.27357" pt_clust_4="94.36326"></scales>
<clustering>
<clus scale="   38.274">  2  5  1 -1</clus>
<clus scale="   94.363">  1  6  2 -1</clus>
<clus scale="  858.642">  1  4  2 -1</clus>
<clus scale="  858.642">  2  3  1 -1</clus>
</clustering>
</event>
<event>
 6   2  0.3464723E-02  0.4807545E+03  0.7816531E-02  0.1018928E+00
        2   -1    0    0  502    0  0.00000000000E+00  0.00000000000E+00  0.33391199846E+04  0.33391199846E+04  0.00000000000E+00 0.  1.
       -2   -1    0    0    0  501  0.00000000000E+00  0.00000000000E+00 -0.10560516414E+03  0.10560516414E+03  0.00000000000E+00 0. -1.
  1000006    1    1    2  502    0  0.61661341839E+02 -0.31181250802E+03  0.14807222848E+04  0.15543704983E+04  0.35000000000E+03 0.  0.
 -1000006    1    1    2    0  501 -0.62889316076E+02  0.33943641946E+03  0.12483182078E+04  0.13416297913E+04  0.35000000000E+03 0.  0.
        2    1    1    2  503    0 -0.45377544789E+02 -0.50872466081E+01  0.49375040976E+03  0.49585730688E+03  0.00000000000E+00 0.  1.
       -2    1    1    2    0  503  0.46605519025E+02 -0.22536664833E+02  0.10723918098E+02  0.52867552287E+02  0.00000000000E+00 0. -1.
<scales pt_clust_1="13000.00000" pt_clust_2="13000.00000" pt_clust_3="45.66182" pt_clust_4="51.33729"></scales>
<clustering>
<clus scale="   45.662">  1  5  2 -1</clus>
<clus scale="   51.337">  2  6  1 -1</clus>
<clus scale="  480.754">  2  4  1 -1</clus>
<clus scale="  480.754">  1  3  2 -1</clus>
</clustering>
</event>
<event>
 4   0  0.3464723E-02  0.4422433E+03  0.7816531E-02  0.1030061E+00
       21   -1    0    0  501  502  0.00000000000E+00  0.00000000000E+00  0.76729266117E+03  0.76729266117E+03  0.00000000000E+00 0. -1.
       21   -1    0    0  502  503  0.00000000000E+00  0.00000000000E+00 -0.25560824159E+03  0.25560824159E+03  0.00000000000E+00 0. -1.
  1000006    1    1    2  501    0 -0.25625917875E+03  0.86083567379E+02  0.28285696143E+03  0.52496400629E+03  0.35000000000E+03 0.  0.
 -1000006    1    1    2    0  503  0.25625917875E+03 -0.86083567379E+02  0.22882745815E+03  0.49793689648E+03  0.35000000000E+03 0.  0.
<scales pt_clust_1="13000.00000" pt_clust_2="13000.00000"></scales>
<clustering>
<clus scale="  442.243">  1  3  2 -1</clus>
<clus scale="  442.243">  1  3  2 -1</clus>
</clustering>
</event>
<event>
 4   0  0.3464723E-02  0.4191317E+03  0.7816531E-02  0.1037349E+00
       21   -1    0    0  501  502  0.00000000000E+00  0.00000000000E+00  0.48158630580E+03  0.48158630580E+03  0.00000000000E+00 0.  1.
       21   -1    0    0  502  503  0.00000000000E+00  0.00000000000E+00 -0.45994006525E+03  0.45994006525E+03  0.00000000000E+00 0.  1.
  1000006    1    1    2  501    0 -0.21889696073E+03  0.72494858460E+02  0.22495786697E+03  0.47568626828E+03  0.35000000000E+03 0.  0.
 -1000006    1    1    2    0  503  0.21889696073E+03 -0.72494858460E+02 -0.20331162642E+03  0.46584010278E+03  0.35000000000E+03 0.  0.
<scales pt_clust_1="13000.00000" pt_clust_2="13000.00000"></scales>
<clustering>
<clus scale="  419.132">  1  3  2 -1</clus>
<clus scale="  419.132">  1  3  2 -1</clus>
</clustering>
</event>
<event>
 5   1  0.3464723E-02  0.4032280E+03  0.7816531E-02  0.1042668E+00
       21   -1    0    0  504  502  0.00000000000E+00  0.00000000000E+00  0.17139689290E+03  0.17139689290E+03  0.00000000000E+00 0.  1.
       21   -1    0    0  501  503  0.00000000000E+00  0.00000000000E+00 -0.10596421718E+04  0.10596421718E+04  0.00000000000E+00 0.  1.
  1000006    1    1    2  501    0 -0.11572171716E+03  0.16878638735E+03 -0.53076436831E+03  0.66790057272E+03  0.35000000000E+03 0.  0.
 -1000006    1    1    2    0  502  0.85976673538E+02 -0.17850320532E+03 -0.31773873537E+03  0.51255564249E+03  0.35000000000E+03 0.  0.
       21    1    1    2  504  503  0.29745043619E+02  0.97168179722E+01 -0.39742175271E+02  0.50582849531E+02  0.00000000000E+00 0.  1.
<scales pt_clust_1="13000.00000" pt_clust_2="13000.00000" pt_clust_3="31.29192"></scales>
<clustering>
<clus scale="   31.292">  2  5  1 -1</clus>
<clus scale="  403.228">  2  3  1 -1</clus>
<clus scale="  403.228">  1  3  2 -1</clus>
</clustering>
</event>
<event>
 4   0  0.3464723E-02  0.3542806E+03  0.7816531E-02  0.1060872E+00
       21   -1    0    0  501  502  0.00000000000E+00  0.00000000000E+00  0.55257964619E+03  0.55257964619E+03  0.00000000000E+00 0.  1.
       21   -1    0    0  502  503  0.00000000000E+00  0.00000000000E+00 -0.34097754318E+03  0.34097754318E+03  0.00000000000E+00 0.  1.
  1000006    1    1    2  501    0  0.37285888487E+02  0.40304879328E+02  0.36394745677E+03  0.50790990546E+03  0.35000000000E+03 0.  0.
 -1000006    1    1    2    0  503 -0.37285888487E+02 -0.40304879328E+02 -0.15234535376E+03  0.38564728391E+03  0.35000000000E+03 0.  0.
<scales pt_clust_1="13000.00000" pt_clust_2="13000.00000"></scales>
<clustering>
<clus scale="  354.281">  1  3  2 -1</clus>
<clus scale="  354.281">  1  3  2 -1</clus>
</clustering>
</event>
<event>
 6   2  0.3464723E-02  0.3814689E+03  0.7816531E-02  0.1050392E+00
        2   -1    0    0  504    0  0.00000000000E+00  0.00000000000E+00  0.13490479110E+04  0.13490479110E+04  0.00000000000E+00 0.  1.
       21   -1    0    0  502  503  0.00000000000E+00  0.00000000000E+00 -0.19495641907E+03  0.19495641907E+03  0.00000000000E+00 0. -1.
  1000006    1    1    2  501    0 -0.71387257817E+02 -0.16547720638E+03  0.54485385340E+03  0.67219384702E+03  0.35000000000E+03 0.  0.
 -1000006    1    1    2    0  503  0.87333988002E+02  0.10998802473E+03  0.15204382350E+03  0.40662257108E+03  0.35000000000E+03 0.  0.
       21    1    1    2  504  501 -0.30610907768E+02  0.14560050066E+02  0.10537436555E+03  0.11069227456E+03  0.00000000000E+00 0.  1.
        2    1    1    2  502    0  0.14664177583E+02  0.40929131585E+02  0.35181944945E+03  0.35449563739E+03  0.00000000000E+00 0.  1.
<scales pt_clust_1="13000.00000" pt_clust_2="13000.00000" pt_clust_3="33.89724" pt_clust_4="45.46396"></scales>
<clustering>
<clus scale="   33.897">  1  5  2 -1</clus>
<clus scale="   45.464">  1  6  2 -1</clus>
<clus scale="  381.469">  1  3  2 -1</clus>
<clus scale="  381.469">  2  3  1 -1</clus>
</clustering>
</event>
<event>
 6   2  0.3464723E-02  0.3668264E+03  0.7816531E-02  0.1055913E+00
        2   -1    0    0  504    0  0.00000000000E+00  0.00000000000E+00  0.43433971430E+04  0.43433971430E+04  0.00000000000E+00 0. -1.
       21   -1    0    0  502  503  0.00000000000E+00  0.00000000000E+00 -0.17430732389E+03  0.17430732389E+03  0.00000000000E+00 0.  1.
  1000006    1    1    2  501    0 -0.29140531137E+03 -0.78941359211E+02  0.70209104003E+03  0.84058350102E+03  0.35000000000E+03 0.  0.
 -1000006    1    1    2    0  503 -0.74300075610E+01  0.62643596485E+02  0.26366737170E+03  0.44271876862E+03  0.35000000000E+03 0.  0.
       21    1    1    2  504  501  0.20650910359E+03 -0.38203096493E+02  0.75332693254E+03  0.78205303767E+03  0.00000000000E+00 0. -1.
        2    1    1    2  502    0  0.92326215342E+02  0.54500859219E+02  0.24500044748E+04  0.24523491596E+04  0.00000000000E+00 0. -1.
<scales pt_clust_1="13000.00000" pt_clust_2="13000.00000" pt_clust_3="244.49675" pt_clust_4="107.21228"></scales>
<clustering>
<clus scale="  107.212">  1  6  2 -1</clus>
<clus scale="  244.497">  1  5  2 -1</clus>
<clus scale="  366.826">  1  3  2 -1</clus>
<clus scale="  366.826">  2  3  1 -1</clus>
</clustering>
</event>
<event>
 4   0  0.3464723E-02  0.4758272E+03  0.7816531E-02  0.1020288E+00
       21   -1    0    0  503  502  0.00000000000E+00  0.00000000000E+00  0.20211152044E+04  0.20211152044E+04  0.00000000000E+00 0. -1.
       21   -1    0    0  501  503  0.00000000000E+00  0.00000000000E+00 -0.12374923460E+03  0.12374923460E+03  0.00000000000E+00 0.  1.
  1000006    1    1    2  501    0  0.31920211275E+03 -0.44961505151E+02  0.61855934503E+03  0.78040194070E+03  0.35000000000E+03 0.  0.
 -1000006    1    1    2    0  502 -0.31920211275E+03  0.44961505151E+02  0.12788066248E+04  0.13644624983E+04  0.35000000000E+03 0.  0.
<scales pt_clust_1="13000.00000" pt_clust_2="13000.00000"></scales>
<clustering>
<clus scale="  475.827">  2  3  1 -1</clus>
<clus scale="  475.827">  1  3  2 -1</clus>
</clustering>
</event>
<event>
 6   2  0.3464723E-02  0.4573993E+03  0.7816531E-02  0.1025538E+00
       21   -1    0    0  502  503  0.00000000000E+00  0.00000000000E+00  0.38460154415E+03  0.38460154415E+03  0.00000000000E+00 0. -1.
        1   -1    0    0  501    0  0.00000000000E+00  0.00000000000E+00 -0.24396133725E+04  0.24396133725E+04  0.00000000000E+00 0. -1.
  1000006    1    1    2  501    0 -0.21838536088E+02  0.18399684095E+03 -0.20210298260E+02  0.39653526362E+03  0.35000000000E+03 0.  0.
 -1000006    1    1    2    0  504 -0.31211261737E+03 -0.11945884343E+03 -0.18595675453E+04  0.19215036188E+04  0.35000000000E+03 0.  0.
       21    1    1    2  504  503  0.72233980297E+02 -0.19448995997E+02  0.99224961005E+02  0.12426425166E+03  0.00000000000E+00 0.  1.
        1    1    1    2  502    0  0.26171717316E+03 -0.45089001523E+02 -0.27445894573E+03  0.38191178258E+03  0.00000000000E+00 0. -1.
<scales pt_clust_1="13000.00000" pt_clust_2="13000.00000" pt_clust_3="74.80649" pt_clust_4="280.24287"></scales>
<clustering>
<clus scale="   74.806">  1  5  2 -1</clus>
<clus scale="  280.243">  1  6  2 -1</clus>
<clus scale=" 1164.711">  3  4 -1 -1</clus>
<clus scale="  457.399">  1  3  2 -1</clus>
</clustering>
</event>
<event>
 5   1  0.3464723E-02  0.3860863E+03  0.7816531E-02  0.1048707E+00
       21   -1    0    0  502  503  0.00000000000E+00  0.00000000000E+00  0.14819396063E+04  0.14819396063E+04  0.00000000000E+00 0.  1.
        2   -1    0    0  501    0  0.00000000000E+00  0.00000000000E+00 -0.87663193118E+03  0.87663193118E+03  0.00000000000E+00 0. -1.
  1000006    1    1    2  501    0 -0.14132220679E+03 -0.71046525753E+02  0.37265935975E+02  0.38588641456E+03  0.35000000000E+03 0.  0.
 -1000006    1    1    2    0  503  0.16558873367E+03 -0.32573482080E+02  0.12363421994E+04  0.12959640020E+04  0.35000000000E+03 0.  0.
        2    1    1    2  502    0 -0.24266526874E+02  0.10362000783E+03 -0.66830046025E+03  0.67672112093E+03  0.00000000000E+00 0. -1.
<scales pt_clust_1="13000.00000" pt_clust_2="13000.00000" pt_clust_3="106.42354"></scales>
<clustering>
<clus scale="  106.424">  2  5  1 -1</clus>
<clus scale="  386.086">  2  3  1 -1</clus>
<clus scale="  386.086">  1  3  2 -1</clus>
</clustering>
</event>
<event>
 4   0  0.3464723E-02  0.4573251E+03  0.7816531E-02  0.1025560E+00
       21   -1    0    0  503  502  0.00000000000E+00  0.00000000000E+00  0.10815815620E+04  0.10815815620E+04  0.00000000000E+00 0. -1.
       21   -1    0    0  501  503  0.00000000000E+00  0.00000000000E+00 -0.19447942298E+03  0.19447942298E+03  0.00000000000E+00 0.  1.
  1000006    1    1    2  501    0  0.29375398642E+03  0.18837741518E+02  0.39537832277E+03  0.60454138251E+03  0.35000000000E+03 0.  0.
 -1000006    1    1    2    0  502 -0.29375398642E+03 -0.18837741518E+02  0.49172381627E+03  0.67151960249E+03  0.35000000000E+03 0.  0.
<scales pt_clust_1="13000.00000" pt_clust_2="13000.00000"></scales>
<clustering>
<clus scale="  457.325">  2  3  1 -1</clus>
<clus scale="  457.325">  1  3  2 -1</clus>
</clustering>
</event>
<event>
 5   1  0.3464723E-02  0.3717989E+03  0.7816531E-02  0.1054007E+00
       21   -1    0    0  503  502  0.00000000000E+00  0.00000000000E+00  0.30569882539E+03  0.30569882539E+03  0.00000000000E+00 0.  1.
       21   -1    0    0  504  503  0.00000000000E+00  0.00000000000E+00 -0.26601409750E+04  0.26601409750E+04  0.00000000000E+00 0.  1.
  1000006    1    1    2  501    0 -0.37728015436E+02 -0.17926425265E+03 -0.51191018951E+03  0.64661512320E+03  0.35000000000E+03 0.  0.
 -1000006    1    1    2    0  502  0.96701331092E+02  0.70606357671E+02  0.91647609379E+02  0.38109800509E+03  0.35000000000E+03 0.  0.
       21    1    1    2  504  501 -0.58973315655E+02  0.10865789498E+03 -0.19341795695E+04  0.19381266721E+04  0.00000000000E+00 0.  1.
<scales pt_clust_1="13000.00000" pt_clust_2="13000.00000" pt_clust_3="123.63005"></scales>
<clustering>
<clus scale="  123.630">  2  5  1 -1</clus>
<clus scale="  371.799">  2  3  1 -1</clus>
<clus scale="  371.799">  1  3  2 -1</clus>
</clustering>
</event>
<event>
 6   2  0.3464723E-02  0.5955965E+03  0.7816531E-02  0.9914584E-01
       21   -1    0    0  505  502  0.00000000000E+00  0.00000000000E+00  0.93487666583E+03  0.93487666583E+03  0.00000000000E+00 0. -1.
       21   -1    0    0  501  503  0.00000000000E+00  0.00000000000E+00 -0.10826169935E+04  0.10826169935E+04  0.00000000000E+00 0. -1.
  1000006    1    1    2  501    0 -0.12795377927E+03 -0.46519989764E+03 -0.24622444211E+03  0.64491052890E+03  0.35000000000E+03 0.  0.
 -1000006    1    1    2    0  504  0.10901130083E+03  0.47748660122E+03  0.27909320541E+03  0.66352839831E+03  0.35000000000E+03 0.  0.
       21    1    1    2  504  502 -0.35095596146E+02 -0.61729134293E+01  0.26134707015E+03  0.26376523047E+03  0.00000000000E+00 0.  1.
       21    1    1    2  505  503  0.54038074584E+02 -0.61137901548E+01 -0.44195616109E+03  0.44528950162E+03  0.00000000000E+00 0. -1.
<scales pt_clust_1="13000.00000" pt_clust_2="13000.00000" pt_clust_3="35.63433" pt_clust_4="54.29810"></scales>
<clustering>
<clus scale="   35.634">  1  5  2 -1</clus>
<clus scale="   54.298">  2  6  1 -1</clus>
<clus scale="  595.596">  2  3  1 -1</clus>
<clus scale="  595.596">  1  3  2 -1</clus>
</clustering>
</event>
<event>
 6   2  0.3464723E-02  0.4041493E+03  0.7816531E-02  0.1042352E+00
        2   -1    0    0  504    0  0.00000000000E+00  0.00000000000E+00  0.20298449288E+04  0.20298449288E+04  0.00000000000E+00 0.  1.
       21   -1    0    0  501  503  0.00000000000E+00  0.00000000000E+00 -0.28546035718E+03  0.28546035718E+03  0.00000000000E+00 0.  1.
  1000006    1    1    2  501    0 -0.16277357395E+03 -0.12973813127E+03 -0.32089788574E+02  0.40848130142E+03  0.35000000000E+03 0.  0.
 -1000006    1    1    2    0  502  0.16473601904E+03  0.82240030197E+02  0.59725285983E+03  0.71631861424E+03  0.35000000000E+03 0.  0.
       21    1    1    2  504  503 -0.38560408375E+02  0.62851974052E+01  0.72035315761E+02  0.81948126991E+02  0.00000000000E+00 0.  1.
        2    1    1    2  502    0  0.36597963289E+02  0.41212903668E+02  0.11071861846E+04  0.11085572433E+04  0.00000000000E+00 0.  1.
<scales pt_clust_1="13000.00000" pt_clust_2="13000.00000" pt_clust_3="39.06928" pt_clust_4="47.13666"></scales>
<clustering>
<clus scale="   39.069">  1  5  2 -1</clus>
<clus scale="   47.137">  1  6  2 -1</clus>
<clus scale="  404.149">  2  3  1 -1</clus>
<clus scale="  404.149">  2  3  1 -1</clus>
</clustering>
</event>
<event>
 5   1  0.3464723E-02  0.3715383E+03  0.7816531E-02  0.1054106E+00
       21   -1    0    0  503  502  0.00000000000E+00  0.00000000000E+00  0.58153248513E+03  0.58153248513E+03  0.00000000000E+00 0.  1.
       21   -1    0    0  504  503  0.00000000000E+00  0.00000000000E+00 -0.63681395691E+03  0.63681395691E+03  0.00000000000E+00 0.  1.
  1000006    1    1    2  501    0 -0.25460213105E+03 -0.47558766407E+01  0.19673449511E+02  0.43328040356E+03  0.35000000000E+03 0.  0.
 -1000006    1    1    2    0  502 -0.66319184103E+00  0.12844031417E+03  0.17049729517E+03  0.40995936602E+03  0.35000000000E+03 0.  0.
       21    1    1    2  504  501  0.25526532289E+03 -0.12368443753E+03 -0.24545221645E+03  0.37510667245E+03  0.00000000000E+00 0.  1.
<scales pt_clust_1="13000.00000" pt_clust_2="13000.00000" pt_clust_3="283.65159"></scales>
<clustering>
<clus scale="  283.652">  2  5  1 -1</clus>
<clus scale="  371.538">  2  3  1 -1</clus>
<clus scale="  371.538">  1  3  2 -1</clus>
</clustering>
</event>
<event>
 6   2  0.3464723E-02  0.4270073E+03  0.7816531E-02  0.1034810E+00
       21   -1    0    0  504  502  0.00000000000E+00  0.00000000000E+00  0.65539300302E+03  0.65539300302E+03  0.00000000000E+00 0.  1.
       21   -1    0    0  501  503  0.00000000000E+00  0.00000000000E+00 -0.59088644007E+03  0.59088644007E+03  0.00000000000E+00 0.  1.
  1000006    1    1    2  501    0 -0.18414079599E+03  0.20737569456E+03 -0.26920275013E+03  0.52142365896E+03  0.35000000000E+03 0.  0.
 -1000006    1    1    2    0  505  0.13647408567E+03 -0.16569253575E+03  0.21039179683E+03  0.46135008468E+03  0.35000000000E+03 0.  0.
       21    1    1    2  504  503  0.14935174161E+02 -0.30752885976E+02 -0.64255716021E+02  0.72784589470E+02  0.00000000000E+00 0.  1.
       21    1    1    2  505  502  0.32731536157E+02 -0.10930272826E+02  0.18757323228E+03  0.19072110998E+03  0.00000000000E+00 0.  1.
<scales pt_clust_1="13000.00000" pt_clust_2="13000.00000" pt_clust_3="34.18771" pt_clust_4="34.58043"></scales>
<clustering>
<clus scale="   34.188">  2  5  1 -1</clus>
<clus scale="   34.580">  1  6  2 -1</clus>
<clus scale="  427.007">  1  4  2 -1</clus>
<clus scale="  427.007">  1  3  2 -1</clus>
</clustering>
</event>
<event>
 4   0  0.3464723E-02  0.3738553E+03  0.7816531E-02  0.1053229E+00
       21   -1    0    0  501  502  0.00000000000E+00  0.00000000000E+00  0.68512313042E+03  0.68512313042E+03  0.00000000000E+00 0. -1.
       21   -1    0    0  502  503  0.00000000000E+00  0.00000000000E+00 -0.21627142344E+03  0.21627142344E+03  0.00000000000E+00 0. -1.
  1000006    1    1    2  501    0 -0.78378943377E+02  0.10547284259E+03  0.34176647483E+03  0.50652946865E+03  0.35000000000E+03 0.  0.
 -1000006    1    1    2    0  503  0.78378943377E+02 -0.10547284259E+03  0.12708523214E+03  0.39486508521E+03  0.35000000000E+03 0.  0.
<scales pt_clust_1="13000.00000" pt_clust_2="13000.00000"></scales>
<clustering>
<clus scale="  373.855">  1  3  2 -1</clus>
<clus scale="  373.855">  1  3  2 -1</clus>
</clustering>
</event>
<event>
 6   2  0.3464723E-02  0.3555570E+03  0.7816531E-02  0.1060357E+00
       21   -1    0    0  505  502  0.00000000000E+00  0.00000000000E+00  0.18973145360E+04  0.18973145360E+04  0.00000000000E+00 0.  1.
       21   -1    0    0  501  503  0.00000000000E+00  0.00000000000E+00 -0.22693241438E+03  0.22693241438E+03  0.00000000000E+00 0.  1.
  1000006    1    1    2  501    0  0.50690667010E+02  0.14005971175E+02  0.66074274707E+03  0.74956433263E+03  0.35000000000E+03 0.  0.
 -1000006    1    1    2    0  504 -0.71152364520E+02  0.12523752403E+02  0.76593415583E+03  0.84520685895E+03  0.35000000000E+03 0.  0.
       21    1    1    2  504  502 -0.21863101045E+02 -0.20795121416E+02  0.38279164033E+03  0.38397899964E+03  0.00000000000E+00 0.  1.
       21    1    1    2  505  503  0.42324798555E+02 -0.57346021614E+01 -0.13908642163E+03  0.14549675912E+03  0.00000000000E+00 0.  1.
<scales pt_clust_1="13000.00000" pt_clust_2="13000.00000" pt_clust_3="30.17337" pt_clust_4="42.67160"></scales>
<clustering>
<clus scale="   30.173">  1  5  2 -1</clus>
<clus scale="   42.672">  2  6  1 -1</clus>
<clus scale="  355.557">  1  4  2 -1</clus>
<clus scale="  355.557">  1  3  2 -1</clus>
</clustering>
</event>
<event>
 6   2  0.3464723E-02  0.4719475E+03  0.7816531E-02  0.1021372E+00
        2   -1    0    0  504    0  0.00000000000E+00  0.00000000000E+00  0.28257244001E+04  0.28257244001E+04  0.00000000000E+00 0. -1.
       21   -1    0    0  501  503  0.00000000000E+00  0.00000000000E+00 -0.42530581738E+03  0.42530581738E+03  0.00000000000E+00 0.  1.
  1000006    1    1    2  501    0 -0.20993438605E+03 -0.26325710814E+03 -0.43808630251E+02  0.48764325846E+03  0.35000000000E+03 0.  0.
 -1000006    1    1    2    0  502  0.17682809848E+03  0.21316224446E+03  0.32390297999E+03  0.55147027057E+03  0.35000000000E+03 0.  0.
       21    1    1    2  504  503  0.56455525233E+01  0.16488087000E+03  0.11035165642E+03  0.19848189245E+03  0.00000000000E+00 0.  1.
        2    1    1    2  502    0  0.27460735049E+02 -0.11478600632E+03  0.20099725766E+04  0.20134347960E+04  0.00000000000E+00 0. -1.
<scales pt_clust_1="13000.00000" pt_clust_2="13000.00000" pt_clust_3="143.51746" pt_clust_4="118.02508"></scales>
<clustering>
<clus scale="  118.025">  1  6  2 -1</clus>
<clus scale="  143.517">  1  5  2 -1</clus>
<clus scale="  471.947">  2  3  1 -1</clus>
<clus scale="  471.947">  2  3  1 -1</clus>
</clustering>
</event>
<event>
 6   2  0.3464723E-02  0.3759493E+03  0.7816531E-02  0.1052441E+00
       21   -1    0    0  501  502  0.00000000000E+00  0.00000000000E+00  0.85723242639E+03  0.85723242639E+03  0.00000000000E+00 0. -1.
       21   -1    0    0  504  503  0.00000000000E+00  0.00000000000E+00 -0.28943912864E+04  0.28943912864E+04  0.00000000000E+00 0. -1.
  1000006    1    1    2  501    0  0.10669484523E+03 -0.39819459475E+02  0.45341065627E+03  0.58399537890E+03  0.35000000000E+03 0.  0.
 -1000006    1    1    2    0  505 -0.13979767226E+03  0.12140496404E+03  0.21973017352E+03  0.45283982115E+03  0.35000000000E+03 0.  0.
       21    1    1    2  504  502 -0.12108210750E+02  0.31037297048E+02 -0.44873399422E+03  0.44996902132E+03  0.00000000000E+00 0. -1.
       21    1    1    2  505  503  0.45211037781E+02 -0.11262280161E+03 -0.22615656956E+04  0.22648194914E+04  0.00000000000E+00 0. -1.
<scales pt_clust_1="13000.00000" pt_clust_2="13000.00000" pt_clust_3="33.31550" pt_clust_4="90.52298"></scales>
<clustering>
<clus scale="   33.316">  2  5  1 -1</clus>
<clus scale="   90.523">  2  6  1 -1</clus>
<clus scale="  375.949">  2  4  1 -1</clus>
<clus scale="  375.949">  1  3  2 -1</clus>
</clustering>
</event>
<event>
 6   2  0.3464723E-02  0.3825276E+03  0.7816531E-02  0.1050003E+00
       21   -1    0    0  505  502  0.00000000000E+00  0.00000000000E+00  0.41504409626E+03  0.41504409626E+03  0.00000000000E+00 0. -1.
       21   -1    0    0  504  503  0.00000000000E+00  0.00000000000E+00 -0.90732223536E+03  0.90732223536E+03  0.00000000000E+00 0. -1.
  1000006    1    1    2  501    0 -0.26898070339E+03 -0.81477141533E+02 -0.12168679347E+03  0.46507721842E+03  0.35000000000E+03 0.  0.
 -1000006    1    1    2    0  503  0.69970537968E+02 -0.14059238757E+03 -0.33186872805E+03  0.50724643743E+03  0.35000000000E+03 0.  0.
       21    1    1    2  504  502  0.24449438126E+02  0.40073541788E+02 -0.81702057083E+02  0.94227861632E+02  0.00000000000E+00 0. -1.
       21    1    1    2  505  501  0.17456072730E+03  0.18199598731E+03  0.42979439496E+02  0.25581481414E+03  0.00000000000E+00 0. -1.
<scales pt_clust_1="13000.00000" pt_clust_2="13000.00000" pt_clust_3="46.94320" pt_clust_4="258.13614"></scales>
<clustering>
<clus scale="   46.943">  2  5  1 -1</clus>
<clus scale="  258.136">  1  6  2 -1</clus>
<clus scale="  382.528">  2  4  1 -1</clus>
<clus scale="  382.528">  1  3  2 -1</clus>
</clustering>
</event>
<event>
 5   1  0.3464723E-02  0.8693458E+03  0.7816531E-02  0.9464733E-01
       21   -1    0    0  501  502  0.00000000000E+00  0.00000000000E+00  0.77136399335E+03  0.77136399335E+03  0.00000000000E+00 0.  1.
       21   -1    0    0  504  503  0.00000000000E+00  0.00000000000E+00 -0.13457035199E+04  0.13457035199E+04  0.00000000000E+00 0. -1.
  1000006    1    1    2  501    0 -0.71703641261E+03  0.38539028121E+03  0.18274077160E+03  0.90474365180E+03  0.35000000000E+03 0.  0.
 -1000006    1    1    2    0  503  0.70370558306E+03 -0.27356803049E+03 -0.69158172738E+03  0.10820472728E+04  0.35000000000E+03 0.  0.
       21    1    1    2  504  502  0.13330829548E+02 -0.11182225072E+03 -0.65498570743E+02  0.13027658862E+03  0.00000000000E+00 0. -1.
<scales pt_clust_1="13000.00000" pt_clust_2="13000.00000" pt_clust_3="112.61406"></scales>
<clustering>
<clus scale="  112.614">  2  5  1 -1</clus>
<clus scale="  869.346">  1  3  2 -1</clus>
<clus scale="  869.346">  1  3  2 -1</clus>
</clustering>
</event>
<event>
 5   1  0.3464723E-02  0.5321267E+03  0.7816531E-02  0.1005718E+00
       21   -1    0    0  502  503  0.00000000000E+00  0.00000000000E+00  0.18036117449E+04  0.18036117449E+04  0.00000000000E+00 0. -1.
       -2   -1    0    0    0  501  0.00000000000E+00  0.00000000000E+00 -0.90246522688E+03  0.90246522688E+03  0.00000000000E+00 0.  1.
  1000006    1    1    2  502    0  0.19196607899E+03 -0.37520989055E+03  0.13499458547E+04  0.14568758520E+04  0.35000000000E+03 0.  0.
 -1000006    1    1    2    0  501 -0.45390502481E+03 -0.63507764902E+02 -0.46067965350E+03  0.73809806320E+03  0.35000000000E+03 0.  0.
       -2    1    1    2    0  503  0.26193894583E+03  0.43871765545E+03  0.11880316833E+02  0.51110305661E+03  0.00000000000E+00 0.  1.
<scales pt_clust_1="13000.00000" pt_clust_2="13000.00000" pt_clust_3="510.96496"></scales>
<clustering>
<clus scale="  510.965">  2  5  1 -1</clus>
<clus scale="  532.127">  1  3  2 -1</clus>
<clus scale="  532.127">  1  3  2 -1</clus>
</clustering>
</event>
<event>
 4   0  0.3464723E-02  0.3712187E+03  0.7816531E-02  0.1054228E+00
       21   -1    0    0  503  502  0.00000000000E+00  0.00000000000E+00  0.15348210722E+04  0.15348210722E+04  0.00000000000E+00 0.  1.
       21   -1    0    0  501  503  0.00000000000E+00  0.00000000000E+00 -0.90387344094E+02  0.90387344094E+02  0.00000000000E+00 0.  1.
  1000006    1    1    2  501    0  0.51678698402E+02  0.11239515586E+03  0.65586135678E+03  0.75362953647E+03  0.35000000000E+03 0.  0.
 -1000006    1    1    2    0  502 -0.51678698402E+02 -0.11239515586E+03  0.78857237133E+03  0.87157887982E+03  0.35000000000E+03 0.  0.
<scales pt_clust_1="13000.00000" pt_clust_2="13000.00000"></scales>
<clustering>
<clus scale="  371.219">  2  3  1 -1</clus>
<clus scale="  371.219">  1  3  2 -1</clus>
</clustering>
</event>
<event>
 6   2  0.3464723E-02  0.4279606E+03  0.7816531E-02  0.1034506E+00
        3   -1    0    0  502    0  0.00000000000E+00  0.00000000000E+00  0.18100801226E+04  0.18100801226E+04  0.00000000000E+00 0. -1.
       -3   -1    0    0    0  501  0.00000000000E+00  0.00000000000E+00 -0.23285382703E+03  0.23285382703E+03  0.00000000000E+00 0.  1.
  1000006    1    1    2  502    0  0.27598119860E+03 -0.14616151913E+03  0.76443450907E+03  0.89687732177E+03  0.35000000000E+03 0.  0.
 -1000006    1    1    2    0  504 -0.12124096351E+03  0.17087580522E+03  0.80390902497E+03  0.90148079984E+03  0.35000000000E+03 0.  0.
       21    1    1    2  503  501  0.35097810069E+02  0.40892988777E+01  0.36252357476E+02  0.50624224038E+02  0.00000000000E+00 0. -1.
       21    1    1    2  504  503 -0.18983804515E+03 -0.28803584971E+02 -0.27369595972E+02  0.19395160396E+03  0.00000000000E+00 0.  1.
<scales pt_clust_1="13000.00000" pt_clust_2="13000.00000" pt_clust_3="35.33523" pt_clust_4="174.69484"></scales>
<clustering>
<clus scale="   35.335">  2  5  1 -1</clus>
<clus scale="  174.695">  2  6  1 -1</clus>
<clus scale="  618.333">  3  4 -1 -1</clus>
<clus scale="  427.961">  1  3  2 -1</clus>
</clustering>
</event>
<event>
 5   1  0.3464723E-02  0.4178066E+03  0.7816531E-02  0.1037783E+00
       21   -1    0    0  501  503  0.00000000000E+00  0.00000000000E+00  0.24848649673E+03  0.24848649673E+03  0.00000000000E+00 0. -1.
        2   -1    0    0  503    0  0.00000000000E+00  0.00000000000E+00 -0.26510763911E+04  0.26510763911E+04  0.00000000000E+00 0. -1.
  1000006    1    1    2  501    0  0.20371773472E+03 -0.10911464889E+03 -0.43679735439E+02  0.42168097103E+03  0.35000000000E+03 0.  0.
 -1000006    1    1    2    0  502 -0.20604012529E+03  0.78474825560E+02 -0.66146181352E+03  0.78015547311E+03  0.35000000000E+03 0.  0.
        2    1    1    2  502    0  0.23223905718E+01  0.30639823328E+02 -0.16974483454E+04  0.16977264437E+04  0.00000000000E+00 0. -1.
<scales pt_clust_1="13000.00000" pt_clust_2="13000.00000" pt_clust_3="30.72771"></scales>
<clustering>
<clus scale="   30.728">  2  5  1 -1</clus>
<clus scale="  417.807">  2  4  1 -1</clus>
<clus scale="  417.807">  1  3  2 -1</clus>
</clustering>
</event>
<event>
 5   1  0.3464723E-02  0.3922399E+03  0.7816531E-02  0.1046500E+00
       21   -1    0    0  504  502  0.00000000000E+00  0.00000000000E+00  0.12039907393E+04  0.12039907393E+04  0.00000000000E+00 0.  1.
       21   -1    0    0  502  503  0.00000000000E+00  0.00000000000E+00 -0.16771943161E+03  0.16771943161E+03  0.00000000000E+00 0.  1.
  1000006    1    1    2  501    0 -0.21153123276E+03 -0.44936975992E+02  0.39604874849E+03  0.57106865211E+03  0.35000000000E+03 0.  0.
 -1000006    1    1    2    0  503  0.13232662251E+03  0.40631326763E+02  0.40726728377E+03  0.55455196345E+03  0.35000000000E+03 0.  0.
       21    1    1    2  504  501  0.79204610244E+02  0.43056492283E+01  0.23295527539E+03  0.24608955530E+03  0.00000000000E+00 0.  1.
<scales pt_clust_1="13000.00000" pt_clust_2="13000.00000" pt_clust_3="79.32155"></scales>
<clustering>
<clus scale="   79.322">  1  5  2 -1</clus>
<clus scale="  392.240">  2  4  1 -1</clus>
<clus scale="  392.240">  1  3  2 -1</clus>
</clustering>
</event>
<event>
 5   1  0.3464723E-02  0.3573205E+03  0.7816531E-02  0.1059650E+00
       21   -1    0    0  501  502  0.00000000000E+00  0.00000000000E+00  0.45860031832E+03  0.45860031832E+03  0.00000000000E+00 0. -1.
       21   -1    0    0  504  503  0.00000000000E+00  0.00000000000E+00 -0.31653348246E+03  0.31653348246E+03  0.00000000000E+00 0. -1.
  1000006    1    1    2  501    0 -0.19725985580E+02 -0.85967129971E+02  0.13140298967E+03  0.38411743990E+03  0.35000000000E+03 0.  0.
 -1000006    1    1    2    0  503 -0.68077839317E+00  0.61779321693E+02 -0.55579338365E+01  0.35545469286E+03  0.35000000000E+03 0.  0.
       21    1    1    2  504  502  0.20406763973E+02  0.24187808278E+02  0.16221780026E+02  0.35561668020E+02  0.00000000000E+00 0.  1.
<scales pt_clust_1="13000.00000" pt_clust_2="13000.00000" pt_clust_3="31.64626"></scales>
<clustering>
<clus scale="   31.646">  1  5  2 -1</clus>
<clus scale="  357.321">  1  3  2 -1</clus>
<clus scale="  357.321">  1  3  2 -1</clus>
</clustering>
</event>
<event>
 6   2  0.3464723E-02  0.5369652E+03  0.7816531E-02  0.1004557E+00
       21   -1    0    0  502  503  0.00000000000E+00  0.00000000000E+00  0.47617958177E+03  0.47617958177E+03  0.00000000000E+00 0. -1.
       21   -1    0    0  501  504  0.00000000000E+00  0.00000000000E+00 -0.78756175486E+03  0.78756175486E+03  0.00000000000E+00 0.  1.
  1000006    1    1    2  501    0 -0.38904732436E+03  0.18939801056E+03 -0.84637483922E+02  0.56293243883E+03  0.35000000000E+03 0.  0.
 -1000006    1    1    2    0  503  0.37630222160E+03 -0.81221909275E+02 -0.21584574960E+03  0.56328478424E+03  0.35000000000E+03 0.  0.
        4    1    1    2  502    0 -0.12172270852E+02 -0.59324428759E+02  0.31446890245E+02  0.68238251233E+02  0.00000000000E+00 0. -1.
       -4    1    1    2    0  504  0.24917373609E+02 -0.48851672526E+02 -0.42345829816E+02  0.69285862331E+02  0.00000000000E+00 0.  1.
<scales pt_clust_1="13000.00000" pt_clust_2="13000.00000" pt_clust_3="61.64346" pt_clust_4="54.83941"></scales>
<clustering>
<clus scale="   54.839">  2  6  1 -1</clus>
<clus scale="   61.643">  1  5  2 -1</clus>
<clus scale="  893.706">  3  4 -1 -1</clus>
<clus scale="  536.965">  1  3  2 -1</clus>
</clustering>
</event>
<event>
 4   0  0.3464723E-02  0.3594336E+03  0.7816531E-02  0.1058808E+00
       21   -1    0    0  503  502  0.00000000000E+00  0.00000000000E+00  0.14425097338E+04  0.14425097338E+04  0.00000000000E+00 0.  1.
       21   -1    0    0  501  503  0.00000000000E+00  0.00000000000E+00 -0.11414383243E+03  0.11414383243E+03  0.00000000000E+00 0.  1.
  1000006    1    1    2  501    0 -0.27960536364E+02 -0.76881049810E+02  0.30297900361E+03  0.47009442035E+03  0.35000000000E+03 0.  0.
 -1000006    1    1    2    0  502  0.27960536364E+02  0.76881049810E+02  0.10253868977E+04  0.10865591458E+04  0.35000000000E+03 0.  0.
<scales pt_clust_1="13000.00000" pt_clust_2="13000.00000"></scales>
<clustering>
<clus scale="  359.434">  2  3  1 -1</clus>
<clus scale="  359.434">  1  3  2 -1</clus>
</clustering>
</event>
<event>
 4   0  0.3464723E-02  0.3803304E+03  0.7816531E-02  0.1050812E+00
       21   -1    0    0  503  502  0.00000000000E+00  0.00000000000E+00  0.11790727918E+04  0.11790727918E+04  0.00000000000E+00 0.  1.
       21   -1    0    0  501  503  0.00000000000E+00  0.00000000000E+00 -0.12517743419E+03  0.12517743419E+03  0.00000000000E+00 0.  1.
  1000006    1    1    2  501    0 -0.14609338637E+03 -0.28424368780E+02  0.43487619012E+03  0.57772703157E+03  0.35000000000E+03 0.  0.
 -1000006    1    1    2    0  502  0.14609338637E+03  0.28424368780E+02  0.61901916746E+03  0.72652319437E+03  0.35000000000E+03 0.  0.
<scales pt_clust_1="13000.00000" pt_clust_2="13000.00000"></scales>
<clustering>
<clus scale="  380.330">  2  3  1 -1</clus>
<clus scale="  380.330">  1  3  2 -1</clus>
</clustering>
</event>
<event>
 6   2  0.3464723E-02  0.3520101E+03  0.7816531E-02  0.1061793E+00
       21   -1    0    0  501  502  0.00000000000E+00  0.00000000000E+00  0.15804544364E+03  0.15804544364E+03  0.00000000000E+00 0.  1.
       21   -1    0    0  504  503  0.00000000000E+00  0.00000000000E+00 -0.20776038990E+04  0.20776038990E+04  0.00000000000E+00 0.  1.
  1000006    1    1    2  501    0  0.56703178473E+02  0.65858193404E+02 -0.24513917384E+03  0.43605706810E+03  0.35000000000E+03 0.  0.
 -1000006    1    1    2    0  503  0.55596694074E+02  0.24817432082E+02 -0.15825533901E+04  0.16219377700E+04  0.35000000000E+03 0.  0.
       21    1    1    2  504  505 -0.79724143771E+02 -0.56997065281E+02 -0.35215862913E+02  0.10413818489E+03  0.00000000000E+00 0.  1.
       21    1    1    2  505  502 -0.32575728776E+02 -0.33678560206E+02 -0.56650028507E+02  0.73516319635E+02  0.00000000000E+00 0.  1.
<scales pt_clust_1="13000.00000" pt_clust_2="13000.00000" pt_clust_3="152.05848" pt_clust_4="33.07733"></scales>
<clustering>
<clus scale="   33.077">  5  6 -1 -1</clus>
<clus scale="  152.058">  1  5  2 -1</clus>
<clus scale="  352.010">  2  4  1 -1</clus>
<clus scale="  352.010">  1  3  2 -1</clus>
</clustering>
</event>
<event>
 5   1  0.3464723E-02  0.5099512E+03  0.7816531E-02  0.1011214E+00
       21   -1    0    0  504  502  0.00000000000E+00  0.00000000000E+00  0.49035186021E+03  0.49035186021E+03  0.00000000000E+00 0. -1.
       21   -1    0    0  502  503  0.00000000000E+00  0.00000000000E+00 -0.11298423859E+04  0.11298423859E+04  0.00000000000E+00 0. -1.
  1000006    1    1    2  501    0 -0.20738309121E+03 -0.13038977723E+03 -0.98333512853E+02  0.43838193425E+03  0.35000000000E+03 0.  0.
 -1000006    1    1    2    0  503  0.39653409149E+03  0.19943665293E+03 -0.71801198998E+03  0.91381370202E+03  0.35000000000E+03 0.  0.
       21    1    1    2  504  501 -0.18915100028E+03 -0.69046875704E+02  0.17685497712E+03  0.26799860985E+03  0.00000000000E+00 0. -1.
<scales pt_clust_1="13000.00000" pt_clust_2="13000.00000" pt_clust_3="201.35931"></scales>
<clustering>
<clus scale="  201.359">  1  5  2 -1</clus>
<clus scale="  509.951">  1  3  2 -1</clus>
<clus scale="  509.951">  1  3  2 -1</clus>
</clustering>
</event>
<event>
 5   1  0.3464723E-02  0.5614964E+03  0.7816531E-02  0.9988674E-01
       21   -1    0    0  503  502  0.00000000000E+00  0.00000000000E+00  0.58307265097E+03  0.58307265097E+03  0.00000000000E+00 0.  1.
       21   -1    0    0  504  503  0.00000000000E+00  0.00000000000E+00 -0.87036761870E+03  0.87036761870E+03  0.00000000000E+00 0. -1.
  1000006    1    1    2  501    0  0.31886592822E+03 -0.33267759694E+03 -0.53185625222E+03  0.78595224837E+03  0.35000000000E+03 0.  0.
 -1000006    1    1    2    0  502 -0.28583315398E+03  0.32584780445E+03  0.27568236021E+03  0.62159323300E+03  0.35000000000E+03 0.  0.
       21    1    1    2  504  501 -0.33032774243E+02  0.68297924933E+01 -0.31121075716E+02  0.45894788303E+02  0.00000000000E+00 0. -1.
<scales pt_clust_1="13000.00000" pt_clust_2="13000.00000" pt_clust_3="33.73144"></scales>
<clustering>
<clus scale="   33.731">  2  5  1 -1</clus>
<clus scale="  561.496">  2  3  1 -1</clus>
<clus scale="  561.496">  1  3  2 -1</clus>
</clustering>
</event>
<event>
 4   0  0.3464723E-02  0.4142415E+03  0.7816531E-02  0.1038957E+00
       21   -1    0    0  501  502  0.00000000000E+00  0.00000000000E+00  0.73494702376E+03  0.73494702376E+03  0.00000000000E+00 0.  1.
       21   -1    0    0  502  503  0.00000000000E+00  0.00000000000E+00 -0.25973604363E+03  0.25973604363E+03  0.00000000000E+00 0.  1.
  1000006    1    1    2  501    0 -0.20172550821E+03  0.91667105453E+02  0.39572899129E+03  0.57288521838E+03  0.35000000000E+03 0.  0.
 -1000006    1    1    2    0  503  0.20172550821E+03 -0.91667105453E+02  0.79481988836E+02  0.42179784902E+03  0.35000000000E+03 0.  0.
<scales pt_clust_1="13000.00000" pt_clust_2="13000.00000"></scales>
<clustering>
<clus scale="  414.242">  1  3  2 -1</clus>
<clus scale="  414.242">  1  3  2 -1</clus>
</clustering>
</event>
<event>
 5   1  0.3464723E-02  0.3722822E+03  0.7816531E-02  0.1053824E+00
       21   -1    0    0  501  503  0.00000000000E+00  0.00000000000E+00  0.25864916845E+03  0.25864916845E+03  0.00000000000E+00 0. -1.
        2   -1    0    0  503    0  0.00000000000E+00  0.00000000000E+00 -0.16344464823E+04  0.16344464823E+04  0.00000000000E+00 0. -1.
  1000006    1    1    2  501    0  0.12470995550E+03  0.52979948874E+02 -0.26387500999E+02  0.37623895092E+03  0.35000000000E+03 0.  0.
 -1000006    1    1    2    0  502 -0.86218411138E+02 -0.73158842739E+02 -0.32293360829E+03  0.48946087285E+03  0.35000000000E+03 0.  0.
        2    1    1    2  502    0 -0.38491544362E+02  0.20178893865E+02 -0.10264762045E+04  0.10273958269E+04  0.00000000000E+00 0. -1.
<scales pt_clust_1="13000.00000" pt_clust_2="13000.00000" pt_clust_3="43.46017"></scales>
<clustering>
<clus scale="   43.460">  2  5  1 -1</clus>
<clus scale="  372.282">  2  4  1 -1</clus>
<clus scale="  372.282">  1  3  2 -1</clus>
</clustering>
</event>
<event>
 5   1  0.3464723E-02  0.3630066E+03  0.7816531E-02  0.1057400E+00
       21   -1    0    0  503  502  0.00000000000E+00  0.00000000000E+00  0.17849160301E+04  0.17849160301E+04  0.00000000000E+00 0. -1.
       21   -1    0    0  501  503  0.00000000000E+00  0.00000000000E+00 -0.25144699742E+03  0.25144699742E+03  0.00000000000E+00 0. -1.
  1000006    1    1    2  501    0  0.20719657115E+02 -0.11098705953E+03 -0.48575592591E+02  0.37095420172E+03  0.35000000000E+03 0.  0.
 -1000006    1    1    2    0  504 -0.39617024799E+02  0.37800240355E+01  0.77802425417E+03  0.85405242070E+03  0.35000000000E+03 0.  0.
       21    1    1    2  504  502  0.18897367684E+02  0.10720703550E+03  0.80402037107E+03  0.81135640508E+03  0.00000000000E+00 0. -1.
<scales pt_clust_1="13000.00000" pt_clust_2="13000.00000" pt_clust_3="108.85981"></scales>
<clustering>
<clus scale="  108.860">  1  5  2 -1</clus>
<clus scale="  363.007">  1  4  2 -1</clus>
<clus scale="  363.007">  1  3  2 -1</clus>
</clustering>
</event>
<event>
 6   2  0.3464723E-02  0.3829698E+03  0.7816531E-02  0.1049842E+00
       21   -1    0    0  501  502  0.00000000000E+00  0.00000000000E+00  0.66812260929E+03  0.66812260929E+03  0.00000000000E+00 0. -1.
       21   -1    0    0  504  503  0.00000000000E+00  0.00000000000E+00 -0.88506352939E+03  0.88506352939E+03  0.00000000000E+00 0. -1.
  1000006    1    1    2  501    0  0.90481565463E+02  0.16387986966E+03 -0.12391201328E+03  0.41580970696E+03  0.35000000000E+03 0.  0.
 -1000006    1    1    2    0  503 -0.49889028341E+02 -0.12630081122E+03 -0.17861528083E+03  0.41574538916E+03  0.35000000000E+03 0.  0.
       21    1    1    2  504  505 -0.10358538912E+02  0.34887970128E+02 -0.31313944724E+03  0.31524717795E+03  0.00000000000E+00 0.  1.
       21    1    1    2  505  502 -0.30233998210E+02 -0.72467028566E+02  0.39872582125E+03  0.40638386460E+03  0.00000000000E+00 0. -1.
<scales pt_clust_1="13000.00000" pt_clust_2="13000.00000" pt_clust_3="36.39327" pt_clust_4="78.33205"></scales>
<clustering>
<clus scale="   36.393">  2  5  1 -1</clus>
<clus scale="   78.332">  1  6  2 -1</clus>
<clus scale="  382.970">  2  4  1 -1</clus>
<clus scale="  382.970">  1  3  2 -1</clus>
</clustering>
</event>
<event>
 6   2  0.3464723E-02  0.3811292E+03  0.7816531E-02  0.1050517E+00
        1   -1    0    0  501    0  0.00000000000E+00  0.00000000000E+00  0.19173772809E+04  0.19173772809E+04  0.00000000000E+00 0. -1.
       21   -1    0    0  502  503  0.00000000000E+00  0.00000000000E+00 -0.98334294876E+03  0.98334294876E+03  0.00000000000E+00 0. -1.
  1000006    1    1    2  501    0  0.10400449362E+03  0.57888957949E+02  0.10951118714E+02  0.36984860842E+03  0.35000000000E+03 0.  0.
 -1000006    1    1    2    0  504 -0.10720824175E+03 -0.16031678858E+03 -0.71280103157E+02  0.40592601900E+03  0.35000000000E+03 0.  0.
       21    1    1    2  504  503 -0.57193886711E+02  0.11405898518E+03 -0.55747405770E+03  0.57188977766E+03  0.00000000000E+00 0. -1.
        1    1    1    2  502    0  0.60397634838E+02 -0.11631154550E+02  0.15518373743E+04  0.15530558246E+04  0.00000000000E+00 0. -1.
<scales pt_clust_1="13000.00000" pt_clust_2="13000.00000" pt_clust_3="126.85900" pt_clust_4="61.50738"></scales>
<clustering>
<clus scale="   61.507">  1  6  2 -1</clus>
<clus scale="  126.859">  2  5  1 -1</clus>
<clus scale="  381.129">  1  3  2 -1</clus>
<clus scale="  381.129">  2  3  1 -1</clus>
</clustering>
</event>
<event>
 4   0  0.3464723E-02  0.3520735E+03  0.7816531E-02  0.1061767E+00
       21   -1    0    0  501  502  0.00000000000E+00  0.00000000000E+00  0.89847775081E+03  0.89847775081E+03  0.00000000000E+00 0. -1.
       21   -1    0    0  502  503  0.00000000000E+00  0.00000000000E+00 -0.13806820755E+03  0.13806820755E+03  0.00000000000E+00 0. -1.
  1000006    1    1    2  501    0 -0.21972419853E+02 -0.31192475473E+02  0.39458139788E+03  0.52881966427E+03  0.35000000000E+03 0.  0.
 -1000006    1    1    2    0  503  0.21972419853E+02  0.31192475473E+02  0.36582814537E+03  0.50772629409E+03  0.35000000000E+03 0.  0.
<scales pt_clust_1="13000.00000" pt_clust_2="13000.00000"></scales>
<clustering>
<clus scale="  352.074">  1  3  2 -1</clus>
<clus scale="  352.074">  1  3  2 -1</clus>
</clustering>
</event>
<event>
 6   2  0.3464723E-02  0.3673339E+03  0.7816531E-02  0.1055717E+00
       21   -1    0    0  501  502  0.00000000000E+00  0.00000000000E+00  0.12058560568E+03  0.12058560568E+03  0.00000000000E+00 0. -1.
       21   -1    0    0  502  503  0.00000000000E+00  0.00000000000E+00 -0.25518972206E+04  0.25518972206E+04  0.00000000000E+00 0. -1.
  1000006    1    1    2  501    0  0.96047340435E+02 -0.29585674534E+02 -0.36966576550E+03  0.51889611863E+03  0.35000000000E+03 0.  0.
 -1000006    1    1    2    0  504 -0.79285785049E+02  0.13449703166E+03 -0.81493987283E+03  0.90055687414E+03  0.35000000000E+03 0.  0.
       21    1    1    2  504  505  0.77888325272E+01 -0.66051371965E+02 -0.43822742546E+03  0.44324567237E+03  0.00000000000E+00 0.  1.
       21    1    1    2  505  503 -0.24550387913E+02 -0.38859985161E+02 -0.80847855110E+03  0.80978416111E+03  0.00000000000E+00 0. -1.
<scales pt_clust_1="13000.00000" pt_clust_2="13000.00000" pt_clust_3="75.89531" pt_clust_4="45.96542"></scales>
<clustering>
<clus scale="   45.965">  2  6  1 -1</clus>
<clus scale="   75.895">  2  5  1 -1</clus>
<clus scale="  367.334">  1  3  2 -1</clus>
<clus scale="  367.334">  1  3  2 -1</clus>
</clustering>
</event>
<event>
 4   0  0.3464723E-02  0.4295450E+03  0.7816531E-02  0.1034004E+00
       21   -1    0    0  503  502  0.00000000000E+00  0.00000000000E+00  0.16854191382E+03  0.16854191382E+03  0.00000000000E+00 0.  1.
       21   -1    0    0  501  503  0.00000000000E+00  0.00000000000E+00 -0.20651503942E+04  0.20651503942E+04  0.00000000000E+00 0.  1.
  1000006    1    1    2  501    0  0.15230708259E+03  0.19700629142E+03 -0.17138939570E+04  0.17669016447E+04  0.35000000000E+03 0.  0.
 -1000006    1    1    2    0  502 -0.15230708259E+03 -0.19700629142E+03 -0.18271452335E+03  0.46679066326E+03  0.35000000000E+03 0.  0.
<scales pt_clust_1="13000.00000" pt_clust_2="13000.00000"></scales>
<clustering>
<clus scale="  429.545">  2  3  1 -1</clus>
<clus scale="  429.545">  1  3  2 -1</clus>
</clustering>
</event>
<event>
 5   1  0.3464723E-02  0.3684974E+03  0.7816531E-02  0.1055269E+00
       21   -1    0    0  503  502  0.00000000000E+00  0.00000000000E+00  0.72024038675E+03  0.72024038675E+03  0.00000000000E+00 0.  1.
       21   -1    0    0  501  503  0.00000000000E+00  0.00000000000E+00 -0.39072213788E+03  0.39072213788E+03  0.00000000000E+00 0.  1.
  1000006    1    1    2  501    0  0.99987287248E+02  0.34362912802E+02 -0.13498964201E+03  0.38974410943E+03  0.35000000000E+03 0.  0.
 -1000006    1    1    2    0  504 -0.12759066618E+03 -0.47164215793E+02  0.14858446999E+03  0.40383311661E+03  0.35000000000E+03 0.  0.
       21    1    1    2  504  502  0.27603378929E+02  0.12801302991E+02  0.31592342090E+03  0.31738529859E+03  0.00000000000E+00 0.  1.
<scales pt_clust_1="13000.00000" pt_clust_2="13000.00000" pt_clust_3="30.42729"></scales>
<clustering>
<clus scale="   30.427">  1  5  2 -1</clus>
<clus scale="  368.497">  1  4  2 -1</clus>
<clus scale="  368.497">  1  3  2 -1</clus>
</clustering>
</event>
<event>
 6   2  0.3464723E-02  0.3626566E+03  0.7816531E-02  0.1057537E+00
       21   -1    0    0  502  503  0.00000000000E+00  0.00000000000E+00  0.17207145301E+04  0.17207145301E+04  0.00000000000E+00 0.  1.
        2   -1    0    0  501    0  0.00000000000E+00  0.00000000000E+00 -0.79694727582E+03  0.79694727582E+03  0.00000000000E+00 0.  1.
  1000006    1    1    2  501    0 -0.39082590805E+02  0.10167931159E+03 -0.11356853137E+03  0.38374984381E+03  0.35000000000E+03 0.  0.
 -1000006    1    1    2    0  504  0.40710222231E+02 -0.93917197172E+02  0.11975931199E+03  0.38382294737E+03  0.35000000000E+03 0.  0.
       21    1    1    2  504  503 -0.19143578547E+02  0.25313688689E+02  0.13328021336E+04  0.13331799529E+04  0.00000000000E+00 0.  1.
        2    1    1    2  502    0  0.17515947120E+02 -0.33075803110E+02 -0.41522565996E+03  0.41690906184E+03  0.00000000000E+00 0.  1.
<scales pt_clust_1="13000.00000" pt_clust_2="13000.00000" pt_clust_3="31.73735" pt_clust_4="37.35948"></scales>
<clustering>
<clus scale="   31.737">  1  5  2 -1</clus>
<clus scale="   37.359">  2  6  1 -1</clus>
<clus scale="  362.657">  1  4  2 -1</clus>
<clus scale="  362.657">  1  3  2 -1</clus>
</clustering>
</event>
<event>
 4   0  0.3464723E-02  0.3634634E+03  0.7816531E-02  0.1057221E+00
       21   -1    0    0  503  502  0.00000000000E+00  0.00000000000E+00  0.68395024212E+03  0.68395024212E+03  0.00000000000E+00 0.  1.
       21   -1    0    0  501  503  0.00000000000E+00  0.00000000000E+00 -0.28049307465E+03  0.28049307465E+03  0.00000000000E+00 0.  1.
  1000006    1    1    2  501    0  0.46683192360E+02  0.86176081846E+02 -0.67361393689E+02  0.36965280317E+03  0.35000000000E+03 0.  0.
 -1000006    1    1    2    0  502 -0.46683192360E+02 -0.86176081846E+02  0.47081856116E+03  0.59479051360E+03  0.35000000000E+03 0.  0.
<scales pt_clust_1="13000.00000" pt_clust_2="13000.00000"></scales>
<clustering>
<clus scale="  363.463">  2  3  1 -1</clus>
<clus scale="  363.463">  1  3  2 -1</clus>
</clustering>
</event>
<event>
 5   1  0.3464723E-02  0.3691929E+03  0.7816531E-02  0.1055002E+00
       21   -1    0    0  501  502  0.00000000000E+00  0.00000000000E+00  0.37045247841E+03  0.37045247841E+03  0.00000000000E+00 0.  1.
       21   -1    0    0  504  503  0.00000000000E+00  0.00000000000E+00 -0.77443333211E+03  0.77443333211E+03  0.00000000000E+00 0.  1.
  1000006    1    1    2  501    0 -0.70169980559E+02  0.28040572322E+01 -0.14058519536E+03  0.38366116048E+03  0.35000000000E+03 0.  0.
 -1000006    1    1    2    0  503  0.14465822609E+03  0.16341525950E+02 -0.43270711230E+03  0.57526384632E+03  0.35000000000E+03 0.  0.
       21    1    1    2  504  502 -0.74488245536E+02 -0.19145583183E+02  0.16931145396E+03  0.18596080372E+03  0.00000000000E+00 0. -1.
<scales pt_clust_1="13000.00000" pt_clust_2="13000.00000" pt_clust_3="76.90938"></scales>
<clustering>
<clus scale="   76.909">  1  5  2 -1</clus>
<clus scale="  369.193">  1  3  2 -1</clus>
<clus scale="  369.193">  1  3  2 -1</clus>
</clustering>
</event>
<event>
 4   0  0.3464723E-02  0.3577415E+03  0.7816531E-02  0.1059482E+00
       21   -1    0    0  503  502  0.00000000000E+00  0.00000000000E+00  0.21820707250E+04  0.21820707250E+04  0.00000000000E+00 0.  1.
       21   -1    0    0  501  503  0.00000000000E+00  0.00000000000E+00 -0.61971366887E+02  0.61971366887E+02  0.00000000000E+00 0.  1.
  1000006    1    1    2  501    0  0.73971941352E+02  0.26751689312E+01  0.80030466885E+03  0.87662224910E+03  0.35000000000E+03 0.  0.
 -1000006    1    1    2    0  502 -0.73971941352E+02 -0.26751689312E+01  0.13197946892E+04  0.13674198428E+04  0.35000000000E+03 0.  0.
<scales pt_clust_1="13000.00000" pt_clust_2="13000.00000"></scales>
<clustering>
<clus scale="  357.742">  2  3  1 -1</clus>
<clus scale="  357.742">  1  3  2 -1</clus>
</clustering>
</event>
<event>
 6   2  0.3464723E-02  0.3505421E+03  0.7816531E-02  0.1062393E+00
        2   -1    0    0  504    0  0.00000000000E+00  0.00000000000E+00  0.13135070918E+04  0.13135070918E+04  0.00000000000E+00 0. -1.
       21   -1    0    0  501  503  0.00000000000E+00  0.00000000000E+00 -0.40771870660E+03  0.40771870660E+03  0.00000000000E+00 0. -1.
  1000006    1    1    2  501    0  0.20314091387E+02  0.23119771756E-01 -0.14186053314E+03  0.37820242425E+03  0.35000000000E+03 0.  0.
 -1000006    1    1    2    0  502 -0.14904552132E+02 -0.18126011252E+02  0.79183794979E+02  0.35961197331E+03  0.35000000000E+03 0.  0.
       21    1    1    2  504  503 -0.15527775043E+02 -0.46391350035E+02  0.89270149768E+02  0.10179601562E+03  0.00000000000E+00 0.  1.
        2    1    1    2  502    0  0.10118235788E+02  0.64494241516E+02  0.87919497362E+03  0.88161538526E+03  0.00000000000E+00 0. -1.
<scales pt_clust_1="13000.00000" pt_clust_2="13000.00000" pt_clust_3="48.92105" pt_clust_4="30.98028"></scales>
<clustering>
<clus scale="   48.921">  1  5  2 -1</clus>
<clus scale="   30.980">  1  6  2 -1</clus>
<clus scale="  350.542">  2  3  1 -1</clus>
<clus scale="  350.542">  2  3  1 -1</clus>
</clustering>
</event>
<event>
 6   2  0.3464723E-02  0.4996056E+03  0.7816531E-02  0.1013882E+00
       21   -1    0    0  501  502  0.00000000000E+00  0.00000000000E+00  0.21589964347E+04  0.21589964347E+04  0.00000000000E+00 0. -1.
       21   -1    0    0  505  503  0.00000000000E+00  0.00000000000E+00 -0.21353887929E+03  0.21353887929E+03  0.00000000000E+00 0. -1.
  1000006    1    1    2  501    0  0.32228556693E+03  0.26490939294E+02  0.94503401665E+03  0.10583756654E+04  0.35000000000E+03 0.  0.
 -1000006    1    1    2    0  504 -0.39939147074E+03 -0.29268574602E+02  0.86631754943E+03  0.10165511757E+04  0.35000000000E+03 0.  0.
       21    1    1    2  504  503  0.35712431247E+02 -0.12562190570E+03  0.60573770850E+02  0.14396326842E+03  0.00000000000E+00 0.  1.
       21    1    1    2  505  502  0.41393472558E+02  0.12839954101E+03  0.73532218495E+02  0.15364520448E+03  0.00000000000E+00 0. -1.
<scales pt_clust_1="13000.00000" pt_clust_2="13000.00000" pt_clust_3="130.59954" pt_clust_4="110.88789"></scales>
<clustering>
<clus scale="  130.600">  2  5  1 -1</clus>
<clus scale="  110.888">  2  6  1 -1</clus>
<clus scale="  499.606">  2  4  1 -1</clus>
<clus scale="  499.606">  1  3  2 -1</clus>
</clustering>
</event>
<event>
 5   1  0.3464723E-02  0.4100409E+03  0.7816531E-02  0.1040357E+00
       21   -1    0    0  504  502  0.00000000000E+00  0.00000000000E+00  0.22601008217E+03  0.22601008217E+03  0.00000000000E+00 0.  1.
       21   -1    0    0  501  503  0.00000000000E+00  0.00000000000E+00 -0.86227981905E+03  0.86227981905E+03  0.00000000000E+00 0.  1.
  1000006    1    1    2  501    0 -0.61237090217E+02  0.19527952561E+03 -0.28057793480E+03  0.49305988666E+03  0.35000000000E+03 0.  0.
 -1000006    1    1    2    0  502  0.10770272299E+03 -0.19690337832E+03 -0.26424402479E+03  0.49264157516E+03  0.35000000000E+03 0.  0.
       21    1    1    2  504  503 -0.46465632777E+02  0.16238527190E+01 -0.91447777289E+02  0.10258843940E+03  0.00000000000E+00 0. -1.
<scales pt_clust_1="13000.00000" pt_clust_2="13000.00000" pt_clust_3="46.49400"></scales>
<clustering>
<clus scale="   46.494">  2  5  1 -1</clus>
<clus scale="  410.041">  2  3  1 -1</clus>
<clus scale="  410.041">  1  3  2 -1</clus>
</clustering>
</event>
<event>
 5   1  0.3464723E-02  0.3551286E+03  0.7816531E-02  0.1060530E+00
       21   -1    0    0  504  502  0.00000000000E+00  0.00000000000E+00  0.58751687362E+03  0.58751687362E+03  0.00000000000E+00 0. -1.
       21   -1    0    0  502  503  0.00000000000E+00  0.00000000000E+00 -0.48374636989E+03  0.48374636989E+03  0.00000000000E+00 0. -1.
  1000006    1    1    2  501    0  0.43565785157E+02 -0.67797476039E+02 -0.30917106939E+02  0.36048625895E+03  0.35000000000E+03 0.  0.
 -1000006    1    1    2    0  503 -0.21226131294E+02  0.41692300852E+02 -0.17853111811E+03  0.39567936102E+03  0.35000000000E+03 0.  0.
       21    1    1    2  504  501 -0.22339653862E+02  0.26105175187E+02  0.31321872878E+03  0.31509762355E+03  0.00000000000E+00 0. -1.
<scales pt_clust_1="13000.00000" pt_clust_2="13000.00000" pt_clust_3="34.35899"></scales>
<clustering>
<clus scale="   34.359">  1  5  2 -1</clus>
<clus scale="  355.129">  2  4  1 -1</clus>
<clus scale="  355.129">  1  3  2 -1</clus>
</clustering>
</event>
<event>
 6   2  0.3464723E-02  0.4281549E+03  0.7816531E-02  0.1034444E+00
       21   -1    0    0  504  503  0.00000000000E+00  0.00000000000E+00  0.10590329413E+04  0.10590329413E+04  0.00000000000E+00 0.  1.
        2   -1    0    0  501    0  0.00000000000E+00  0.00000000000E+00 -0.31144015697E+04  0.31144015697E+04  0.00000000000E+00 0. -1.
  1000006    1    1    2  501    0  0.13573416148E+02 -0.19509459417E+03 -0.18891310754E+03  0.44320909343E+03  0.35000000000E+03 0.  0.
 -1000006    1    1    2    0  503  0.13924770730E+03  0.18827267795E+03  0.86293202168E+03  0.96020216585E+03  0.35000000000E+03 0.  0.
       21    1    1    2  504  502  0.22098579570E+02  0.32451168836E+02 -0.46259909154E+01  0.39532586176E+02  0.00000000000E+00 0.  1.
        2    1    1    2  502    0 -0.17491970302E+03 -0.25629252613E+02 -0.27247615516E+04  0.27304906655E+04  0.00000000000E+00 0. -1.
<scales pt_clust_1="13000.00000" pt_clust_2="13000.00000" pt_clust_3="39.26099" pt_clust_4="176.71428"></scales>
<clustering>
<clus scale="   39.261">  1  5  2 -1</clus>
<clus scale="  176.714">  2  6  1 -1</clus>
<clus scale="  428.155">  1  4  2 -1</clus>
<clus scale="  428.155">  1  3  2 -1</clus>
</clustering>
</event>
<event>
 5   1  0.3464723E-02  0.5730322E+03  0.7816531E-02  0.1007586E+00
       21   -1    0    0  504  502  0.00000000000E+00  0.00000000000E+00  0.81826177326E+03  0.81826177326E+03  0.00000000000E+00 0. -1.
       21   -1    0    0  501  503  0.00000000000E+00  0.00000000000E+00 -0.90320662004E+03  0.90320662004E+03  0.00000000000E+00 0. -1.
  1000006    1    1    2  501    0 -0.61271872340E+01  0.19778163164E+03 -0.19143635748E+03  0.44531224461E+03  0.35000000000E+03 0.  0.
 -1000006    1    1    2    0  502 -0.44135343142E+03 -0.24441753142E+03 -0.28761055596E+03  0.67805059766E+03  0.35000000000E+03 0.  0.
       21    1    1    2  504  503  0.44748061865E+03  0.46635899780E+02  0.39410206666E+03  0.59810555102E+03  0.00000000000E+00 0. -1.
<scales pt_clust_1="13000.00000" pt_clust_2="13000.00000" pt_clust_3="453.72452"></scales>
<clustering>
<clus scale="  402.064">  2  3  1 -1</clus>
<clus scale="  453.725">  1  5  2 -1</clus>
<clus scale="  573.032">  1  3  2 -1</clus>
</clustering>
</event>
<event>
 6   2  0.3464723E-02  0.4010700E+03  0.7816531E-02  0.1043410E+00
       21   -1    0    0  505  502  0.00000000000E+00  0.00000000000E+00  0.81761664351E+03  0.81761664351E+03  0.00000000000E+00 0.  1.
       21   -1    0    0  501  503  0.00000000000E+00  0.00000000000E+00 -0.41773435866E+03  0.41773435866E+03  0.00000000000E+00 0.  1.
  1000006    1    1    2  501    0 -0.39531014769E+02 -0.18125343259E+03 -0.14956215063E+03  0.42341982105E+03  0.35000000000E+03 0.  0.
 -1000006    1    1    2    0  504 -0.77782380880E+02  0.24948918172E+03  0.44149883509E+03  0.62106052198E+03  0.35000000000E+03 0.  0.
       21    1    1    2  504  502  0.90185229116E+02 -0.11147362054E+02  0.82499093749E+02  0.12273442753E+03  0.00000000000E+00 0. -1.
       21    1    1    2  505  503  0.27128166533E+02 -0.57088387079E+02  0.25446506645E+02  0.68136231618E+02  0.00000000000E+00 0. -1.
<scales pt_clust_1="13000.00000" pt_clust_2="13000.00000" pt_clust_3="95.65187" pt_clust_4="63.20618"></scales>
<clustering>
<clus scale="   63.206">  1  6  2 -1</clus>
<clus scale="   95.652">  1  5  2 -1</clus>
<clus scale="  401.070">  2  3  1 -1</clus>
<clus scale="  401.070">  1  3  2 -1</clus>
</clustering>
</event>
<event>
 6   2  0.3464723E-02  0.3516304E+03  0.7816531E-02  0.1061948E+00
       21   -1    0    0  505  502  0.00000000000E+00  0.00000000000E+00  0.23526312696E+04  0.23526312696E+04  0.00000000000E+00 0. -1.
       21   -1    0    0  501  503  0.00000000000E+00  0.00000000000E+00 -0.99894865638E+03  0.99894865638E+03  0.00000000000E+00 0. -1.
  1000006    1    1    2  501    0 -0.27068484186E+02  0.24745901856E+02  0.35699466002E+03  0.50128858932E+03  0.35000000000E+03 0.  0.
 -1000006    1    1    2    0  502 -0.42441731162E+01  0.39309282349E+02  0.13143513120E+04  0.13607287033E+04  0.35000000000E+03 0.  0.
       21    1    1    2  504  503 -0.27981125391E+02 -0.29233863833E+02 -0.90114000100E+03  0.90204814925E+03  0.00000000000E+00 0. -1.
       21    1    1    2  505  504  0.59293782693E+02 -0.34821320372E+02  0.58347664215E+03  0.58751448403E+03  0.00000000000E+00 0.  1.
<scales pt_clust_1="13000.00000" pt_clust_2="13000.00000" pt_clust_3="40.46680" pt_clust_4="68.57397"></scales>
<clustering>
<clus scale="   40.467">  2  5  1 -1</clus>
<clus scale="   68.574">  1  6  2 -1</clus>
<clus scale="  351.630">  1  4  2 -1</clus>
<clus scale="  351.630">  1  3  2 -1</clus>
</clustering>
</event>
<event>
 5   1  0.3464723E-02  0.4997479E+03  0.7816531E-02  0.1013845E+00
       21   -1    0    0  501  502  0.00000000000E+00  0.00000000000E+00  0.11832444639E+04  0.11832444639E+04  0.00000000000E+00 0. -1.
       21   -1    0    0  502  503  0.00000000000E+00  0.00000000000E+00 -0.26489474224E+03  0.26489474224E+03  0.00000000000E+00 0. -1.
  1000006    1    1    2  501    0 -0.11480602093E+02 -0.36666709477E+03  0.50117566412E+03  0.71291907599E+03  0.35000000000E+03 0.  0.
 -1000006    1    1    2    0  504 -0.37984375776E+02  0.34605511777E+03  0.45361141195E+03  0.67041798185E+03  0.35000000000E+03 0.  0.
       21    1    1    2  504  503  0.49464977868E+02  0.20611976996E+02 -0.36437354389E+02  0.64802148314E+02  0.00000000000E+00 0. -1.
<scales pt_clust_1="13000.00000" pt_clust_2="13000.00000" pt_clust_3="53.58766"></scales>
<clustering>
<clus scale="   53.588">  2  5  1 -1</clus>
<clus scale="  499.748">  2  4  1 -1</clus>
<clus scale="  499.748">  1  3  2 -1</clus>
</clustering>
</event>
<event>
 6   2  0.3464723E-02  0.3599082E+03  0.7816531E-02  0.1058620E+00
       21   -1    0    0  504  503  0.00000000000E+00  0.00000000000E+00  0.18645280656E+04  0.18645280656E+04  0.00000000000E+00 0.  1.
        2   -1    0    0  501    0  0.00000000000E+00  0.00000000000E+00 -0.22378748900E+03  0.22378748900E+03  0.00000000000E+00 0.  1.
  1000006    1    1    2  501    0 -0.35823701721E+00 -0.41880904015E+02  0.60919041235E+03  0.70382320007E+03  0.35000000000E+03 0.  0.
 -1000006    1    1    2    0  503  0.26545076803E+02  0.12544732176E+03  0.10500909164E+04  0.11142856924E+04  0.35000000000E+03 0.  0.
       21    1    1    2  504  502 -0.27145593566E+02 -0.38774354269E+02  0.11766153718E+03  0.12682496257E+03  0.00000000000E+00 0.  1.
        2    1    1    2  502    0  0.95875377942E+00 -0.44792063478E+02 -0.13620228930E+03  0.14338169957E+03  0.00000000000E+00 0.  1.
<scales pt_clust_1="13000.00000" pt_clust_2="13000.00000" pt_clust_3="49.32484" pt_clust_4="44.80232"></scales>
<clustering>
<clus scale="   44.802">  2  6  1 -1</clus>
<clus scale="   49.325">  1  5  2 -1</clus>
<clus scale="  359.908">  2  3  1 -1</clus>
<clus scale="  359.908">  1  3  2 -1</clus>
</clustering>
</event>
<event>
 6   2  0.3464723E-02  0.8815035E+03  0.7816531E-02  0.9495522E-01
       21   -1    0    0  502  503  0.00000000000E+00  0.00000000000E+00  0.74096792827E+03  0.74096792827E+03  0.00000000000E+00 0. -1.
        2   -1    0    0  501    0  0.00000000000E+00  0.00000000000E+00 -0.36199210945E+04  0.36199210945E+04  0.00000000000E+00 0. -1.
  1000006    1    1    2  501    0 -0.31681822400E+02  0.95442356660E+03 -0.56091541717E+03  0.11614879197E+04  0.35000000000E+03 0.  0.
 -1000006    1    1    2    0  504 -0.60390855055E+03 -0.36516024804E+03 -0.15923317407E+03  0.80368074999E+03  0.35000000000E+03 0.  0.
       21    1    1    2  504  503  0.97978844926E+02  0.23682850158E+02 -0.14741083507E+02  0.10187262138E+03  0.00000000000E+00 0. -1.
        2    1    1    2  502    0  0.53761152803E+03 -0.61294616872E+03 -0.21440634915E+04  0.22938477318E+04  0.00000000000E+00 0. -1.
<scales pt_clust_1="13000.00000" pt_clust_2="13000.00000" pt_clust_3="100.80045" pt_clust_4="809.04170"></scales>
<clustering>
<clus scale="  100.800">  1  5  2 -1</clus>
<clus scale="  748.363">  1  4  2 -1</clus>
<clus scale="  809.042">  2  6  1 -1</clus>
<clus scale="  881.504">  1  3  2 -1</clus>
</clustering>
</event>
<event>
 6   2  0.3464723E-02  0.3647644E+03  0.7816531E-02  0.1056713E+00
       21   -1    0    0  504  502  0.00000000000E+00  0.00000000000E+00  0.64126592475E+03  0.64126592475E+03  0.00000000000E+00 0.  1.
       21   -1    0    0  505  503  0.00000000000E+00  0.00000000000E+00 -0.16879593731E+04  0.16879593731E+04  0.00000000000E+00 0. -1.
  1000006    1    1    2  501    0  0.18827029118E+02  0.34178368868E+02 -0.48310521167E+03  0.59784050002E+03  0.35000000000E+03 0.  0.
 -1000006    1    1    2    0  503 -0.50620771097E+02  0.17312783549E+03 -0.10865187603E+04  0.11556637601E+04  0.35000000000E+03 0.  0.
       21    1    1    2  504  501 -0.31051633035E+02 -0.35265347204E+02  0.50258005946E+02  0.68802004253E+02  0.00000000000E+00 0.  1.
       21    1    1    2  505  502  0.62845375013E+02 -0.17204085715E+03  0.47267251760E+03  0.50691903356E+03  0.00000000000E+00 0.  1.
<scales pt_clust_1="13000.00000" pt_clust_2="13000.00000" pt_clust_3="46.98775" pt_clust_4="205.04407"></scales>
<clustering>
<clus scale="   46.988">  1  5  2 -1</clus>
<clus scale="  205.044">  1  6  2 -1</clus>
<clus scale="  364.764">  1  3  2 -1</clus>
<clus scale="  364.764">  1  3  2 -1</clus>
</clustering>
</event>
<event>
 6   2  0.3464723E-02  0.3692311E+03  0.7816531E-02  0.1054987E+00
       21   -1    0    0  501  502  0.00000000000E+00  0.00000000000E+00  0.70481652068E+03  0.70481652068E+03  0.00000000000E+00 0. -1.
       21   -1    0    0  504  503  0.00000000000E+00  0.00000000000E+00 -0.56074907912E+03  0.56074907912E+03  0.00000000000E+00 0. -1.
  1000006    1    1    2  501    0  0.64701727298E+02 -0.12905631712E+03  0.38289823905E+03  0.53847275509E+03  0.35000000000E+03 0.  0.
 -1000006    1    1    2    0  503 -0.10986281579E+03  0.57417276971E+02 -0.32176940029E+03  0.49132690640E+03  0.35000000000E+03 0.  0.
       21    1    1    2  504  505  0.27024753682E+02  0.19324967492E+02 -0.67624415018E+02  0.75344894894E+02  0.00000000000E+00 0.  1.
       21    1    1    2  505  502  0.18136334812E+02  0.52314072658E+02  0.15056301782E+03  0.16042104343E+03  0.00000000000E+00 0. -1.
<scales pt_clust_1="13000.00000" pt_clust_2="13000.00000" pt_clust_3="33.22336" pt_clust_4="55.64212"></scales>
<clustering>
<clus scale="   33.223">  2  5  1 -1</clus>
<clus scale="   55.642">  1  6  2 -1</clus>
<clus scale="  369.231">  2  4  1 -1</clus>
<clus scale="  369.231">  1  3  2 -1</clus>
</clustering>
</event>
<event>
 4   0  0.3464723E-02  0.5288298E+03  0.7816531E-02  0.1006516E+00
        2   -1    0    0  502    0  0.00000000000E+00  0.00000000000E+00  0.95144536489E+03  0.95144536489E+03  0.00000000000E+00 0. -1.
       -2   -1    0    0    0  501  0.00000000000E+00  0.00000000000E+00 -0.42887165003E+03  0.42887165003E+03  0.00000000000E+00 0.  1.
  1000006    1    1    2  502    0 -0.36712384297E+03  0.14960295176E+03 -0.12584039744E+03  0.54359614134E+03  0.35000000000E+03 0.  0.
 -1000006    1    1    2    0  501  0.36712384297E+03 -0.14960295176E+03  0.64841411230E+03  0.83672087358E+03  0.35000000000E+03 0.  0.
<scales pt_clust_1="13000.00000" pt_clust_2="13000.00000"></scales>
<clustering>
<clus scale=" 1124.585">  3  4 -1 -1</clus>
<clus scale="  528.830">  1  3  2 -1</clus>
</clustering>
</event>
<event>
 4   0  0.3464723E-02  0.4104935E+03  0.7816531E-02  0.1040206E+00
       21   -1    0    0  503  502  0.00000000000E+00  0.00000000000E+00  0.27410696343E+03  0.27410696343E+03  0.00000000000E+00 0. -1.
       21   -1    0    0  501  503  0.00000000000E+00  0.00000000000E+00 -0.62572513353E+03  0.62572513353E+03  0.00000000000E+00 0. -1.
  1000006    1    1    2  501    0 -0.16301520689E+03 -0.13939496593E+03 -0.23541831924E+03  0.47320893825E+03  0.35000000000E+03 0.  0.
 -1000006    1    1    2    0  502  0.16301520689E+03  0.13939496593E+03 -0.11619985087E+03  0.42662315871E+03  0.35000000000E+03 0.  0.
<scales pt_clust_1="13000.00000" pt_clust_2="13000.00000"></scales>
<clustering>
<clus scale="  410.494">  2  3  1 -1</clus>
<clus scale="  410.494">  1  3  2 -1</clus>
</clustering>
</event>
<event>
 5   1  0.3464723E-02  0.4260614E+03  0.7816531E-02  0.1035111E+00
        1   -1    0    0  501    0  0.00000000000E+00  0.00000000000E+00  0.18750745514E+04  0.18750745514E+04  0.00000000000E+00 0.  1.
       21   -1    0    0  502  503  0.00000000000E+00  0.00000000000E+00 -0.33471102879E+03  0.33471102879E+03  0.00000000000E+00 0.  1.
  1000006    1    1    2  501    0  0.23703565414E+03  0.17034797824E+02  0.25473220421E+03  0.49382646905E+03  0.35000000000E+03 0.  0.
 -1000006    1    1    2    0  503 -0.24630984861E+03  0.13745504848E+02 -0.17204019100E+01  0.42820607213E+03  0.35000000000E+03 0.  0.
        1    1    1    2  502    0  0.92741944721E+01 -0.30780302672E+02  0.12873517203E+04  0.12877530390E+04  0.00000000000E+00 0.  1.
<scales pt_clust_1="13000.00000" pt_clust_2="13000.00000" pt_clust_3="32.14713"></scales>
<clustering>
<clus scale="   32.147">  1  5  2 -1</clus>
<clus scale="  426.061">  1  3  2 -1</clus>
<clus scale="  426.061">  2  3  1 -1</clus>
</clustering>
</event>
<event>
 5   1  0.3464723E-02  0.3577158E+03  0.7816531E-02  0.1059492E+00
        2   -1    0    0  503    0  0.00000000000E+00  0.00000000000E+00  0.15008926564E+04  0.15008926564E+04  0.00000000000E+00 0.  1.
       21   -1    0    0  501  503  0.00000000000E+00  0.00000000000E+00 -0.44038099816E+03  0.44038099816E+03  0.00000000000E+00 0.  1.
  1000006    1    1    2  501    0 -0.54263220874E+02  0.49135618828E+02 -0.17264457914E+03  0.39707046841E+03  0.35000000000E+03 0.  0.
 -1000006    1    1    2    0  502  0.84147282918E+02 -0.10669087415E+02  0.54136494327E+02  0.36417764163E+03  0.35000000000E+03 0.  0.
        2    1    1    2  502    0 -0.29884062044E+02 -0.38466531413E+02  0.11790197431E+04  0.11800255445E+04  0.00000000000E+00 0.  1.
<scales pt_clust_1="13000.00000" pt_clust_2="13000.00000" pt_clust_3="48.71069"></scales>
<clustering>
<clus scale="   48.711">  1  5  2 -1</clus>
<clus scale="  357.716">  2  3  1 -1</clus>
<clus scale="  357.716">  2  3  1 -1</clus>
</clustering>
</event>
<event>
 5   1  0.3464723E-02  0.4013843E+03  0.7816531E-02  0.1043301E+00
        2   -1    0    0  501    0  0.00000000000E+00  0.00000000000E+00  0.29301980024E+04  0.29301980024E+04  0.00000000000E+00 0. -1.
       21   -1    0    0  502  503  0.00000000000E+00  0.00000000000E+00 -0.23423881498E+03  0.23423881498E+03  0.00000000000E+00 0.  1.
  1000006    1    1    2  501    0  0.18587550505E+03 -0.92563848323E+02  0.79119303788E+03  0.88972141291E+03  0.35000000000E+03 0.  0.
 -1000006    1    1    2    0  503 -0.19752347223E+03  0.51569737462E+01  0.35628691255E+02  0.40349909554E+03  0.35000000000E+03 0.  0.
        2    1    1    2  502    0  0.11647967180E+02  0.87406874577E+02  0.18691374583E+04  0.18712163089E+04  0.00000000000E+00 0. -1.
<scales pt_clust_1="13000.00000" pt_clust_2="13000.00000" pt_clust_3="88.17957"></scales>
<clustering>
<clus scale="   88.180">  1  5  2 -1</clus>
<clus scale="  401.384">  2  4  1 -1</clus>
<clus scale="  401.384">  2  3  1 -1</clus>
</clustering>
</event>
<event>
 5   1  0.3464723E-02  0.4714215E+03  0.7816531E-02  0.1021520E+00
       21   -1    0    0  501  502  0.00000000000E+00  0.00000000000E+00  0.87581495844E+03  0.87581495844E+03  0.00000000000E+00 0.  1.
       21   -1    0    0  504  503  0.00000000000E+00  0.00000000000E+00 -0.64642070893E+03  0.64642070893E+03  0.00000000000E+00 0.  1.
  1000006    1    1    2  501    0 -0.38003300736E+03  0.98771682695E+02  0.13140585119E+03  0.54217011141E+03  0.35000000000E+03 0.  0.
 -1000006    1    1    2    0  503  0.27923754645E+03  0.13611236185E+03 -0.26371645802E+03  0.53716529358E+03  0.35000000000E+03 0.  0.
       21    1    1    2  504  502  0.10079546090E+03 -0.23488404454E+03  0.36170485633E+03  0.44290026238E+03  0.00000000000E+00 0.  1.
<scales pt_clust_1="13000.00000" pt_clust_2="13000.00000" pt_clust_3="255.59781"></scales>
<clustering>
<clus scale="  255.598">  1  5  2 -1</clus>
<clus scale="  471.422">  1  3  2 -1</clus>
<clus scale="  471.422">  1  3  2 -1</clus>
</clustering>
</event>
<event>
 6   2  0.3464723E-02  0.3908641E+03  0.7816531E-02  0.1046990E+00
        2   -1    0    0  501    0  0.00000000000E+00  0.00000000000E+00  0.11906445076E+04  0.11906445076E+04  0.00000000000E+00 0. -1.
       21   -1    0    0  504  503  0.00000000000E+00  0.00000000000E+00 -0.24867031422E+03  0.24867031422E+03  0.00000000000E+00 0. -1.
  1000006    1    1    2  501    0  0.47993051010E+02 -0.12075196011E+03  0.50877641786E+03  0.63106086250E+03  0.35000000000E+03 0.  0.
 -1000006    1    1    2    0  503 -0.94027906759E+01  0.17451408151E+03  0.75810635076E+02  0.39848567039E+03  0.35000000000E+03 0.  0.
       21    1    1    2  504  502 -0.54078524975E+02  0.31806279754E+02  0.27303356994E+02  0.68422215679E+02  0.00000000000E+00 0.  1.
        2    1    1    2  502    0  0.15488264640E+02 -0.85568401148E+02  0.33008378343E+03  0.34134607322E+03  0.00000000000E+00 0. -1.
<scales pt_clust_1="13000.00000" pt_clust_2="13000.00000" pt_clust_3="62.73856" pt_clust_4="85.95645"></scales>
<clustering>
<clus scale="   62.739">  2  5  1 -1</clus>
<clus scale="   85.956">  1  6  2 -1</clus>
<clus scale="  390.864">  1  3  2 -1</clus>
<clus scale="  390.864">  2  3  1 -1</clus>
</clustering>
</event>
<event>
 5   1  0.3464723E-02  0.4790400E+03  0.7816531E-02  0.1019399E+00
       21   -1    0    0  504  502  0.00000000000E+00  0.00000000000E+00  0.43570424634E+03  0.43570424634E+03  0.00000000000E+00 0. -1.
       21   -1    0    0  501  503  0.00000000000E+00  0.00000000000E+00 -0.63102783645E+03  0.63102783645E+03  0.00000000000E+00 0.  1.
  1000006    1    1    2  501    0  0.15442035398E+02 -0.34156067106E+03 -0.21868296462E+03  0.53593319312E+03  0.35000000000E+03 0.  0.
 -1000006    1    1    2    0  502  0.15925069779E+02  0.30674137972E+03 -0.21179042548E+02  0.46614636513E+03  0.35000000000E+03 0.  0.
       21    1    1    2  504  503 -0.31367105177E+02  0.34819291334E+02  0.44538417061E+02  0.64652524548E+02  0.00000000000E+00 0. -1.
<scales pt_clust_1="13000.00000" pt_clust_2="13000.00000" pt_clust_3="46.86447"></scales>
<clustering>
<clus scale="   46.864">  1  5  2 -1</clus>
<clus scale="  479.040">  2  3  1 -1</clus>
<clus scale="  479.040">  1  3  2 -1</clus>
</clustering>
</event>
<event>
 6   2  0.3464723E-02  0.3593394E+03  0.7816531E-02  0.1058846E+00
       21   -1    0    0  505  502  0.00000000000E+00  0.00000000000E+00  0.64110367852E+03  0.64110367852E+03  0.00000000000E+00 0. -1.
       21   -1    0    0  501  503  0.00000000000E+00  0.00000000000E+00 -0.29201659006E+04  0.29201659006E+04  0.00000000000E+00 0.  1.
  1000006    1    1    2  501    0  0.72468777388E+02  0.36746066303E+02 -0.12822787342E+04  0.13316684082E+04  0.35000000000E+03 0.  0.
 -1000006    1    1    2    0  502 -0.86009447895E+02  0.67921623425E+02 -0.95786856611E+03  0.10256818035E+04  0.35000000000E+03 0.  0.
       21    1    1    2  504  503  0.21357941738E+02  0.23905107844E+02 -0.61387278149E+03  0.61470920582E+03  0.00000000000E+00 0.  1.
       21    1    1    2  505  504 -0.78172712308E+01 -0.12857279757E+03  0.57495785979E+03  0.58921016160E+03  0.00000000000E+00 0. -1.
<scales pt_clust_1="13000.00000" pt_clust_2="13000.00000" pt_clust_3="32.05645" pt_clust_4="128.73249"></scales>
<clustering>
<clus scale="   32.056">  2  5  1 -1</clus>
<clus scale="  128.732">  1  6  2 -1</clus>
<clus scale="  359.339">  2  3  1 -1</clus>
<clus scale="  359.339">  1  3  2 -1</clus>
</clustering>
</event>
<event>
 6   2  0.3464723E-02  0.3625081E+03  0.7816531E-02  0.1057595E+00
       21   -1    0    0  505  502  0.00000000000E+00  0.00000000000E+00  0.37664134989E+03  0.37664134989E+03  0.00000000000E+00 0. -1.
       21   -1    0    0  504  503  0.00000000000E+00  0.00000000000E+00 -0.62519226374E+03  0.62519226374E+03  0.00000000000E+00 0. -1.
  1000006    1    1    2  501    0  0.63743631577E+02  0.13019485100E+02 -0.59392895158E+02  0.36091588155E+03  0.35000000000E+03 0.  0.
 -1000006    1    1    2    0  502 -0.11248345946E+03 -0.29010593947E+02  0.63083686585E+02  0.37413058513E+03  0.35000000000E+03 0.  0.
       21    1    1    2  504  501  0.19853582659E+02  0.30887152716E+02 -0.21153192143E+03  0.21469498069E+03  0.00000000000E+00 0.  1.
       21    1    1    2  505  503  0.28886245224E+02 -0.14896043869E+02 -0.40709783846E+02  0.52092166272E+02  0.00000000000E+00 0.  1.
<scales pt_clust_1="13000.00000" pt_clust_2="13000.00000" pt_clust_3="39.68498" pt_clust_4="32.50088"></scales>
<clustering>
<clus scale="   32.501">  2  6  1 -1</clus>
<clus scale="   39.685">  2  5  1 -1</clus>
<clus scale="  362.508">  1  4  2 -1</clus>
<clus scale="  362.508">  1  3  2 -1</clus>
</clustering>
</event>
<event>
 6   2  0.3464723E-02  0.3738964E+03  0.7816531E-02  0.1053213E+00
       21   -1    0    0  505  502  0.00000000000E+00  0.00000000000E+00  0.89255503667E+03  0.89255503667E+03  0.00000000000E+00 0. -1.
       21   -1    0    0  501  503  0.00000000000E+00  0.00000000000E+00 -0.51386590159E+03  0.51386590159E+03  0.00000000000E+00 0.  1.
  1000006    1    1    2  501    0 -0.56912045010E+02 -0.12752903987E+03 -0.21931301919E+03  0.43600554729E+03  0.35000000000E+03 0.  0.
 -1000006    1    1    2    0  504  0.15058381673E+03  0.37920735066E+02  0.33812660638E+02  0.38439142034E+03  0.35000000000E+03 0.  0.
       21    1    1    2  504  502 -0.33622678089E+02 -0.15773431840E+02  0.13835672643E+03  0.14325456148E+03  0.00000000000E+00 0.  1.
       21    1    1    2  505  503 -0.60049093634E+02  0.10538173665E+03  0.42583276720E+03  0.44276940916E+03  0.00000000000E+00 0. -1.
<scales pt_clust_1="13000.00000" pt_clust_2="13000.00000" pt_clust_3="37.13873" pt_clust_4="124.83507"></scales>
<clustering>
<clus scale="   37.139">  1  5  2 -1</clus>
<clus scale="  124.835">  1  6  2 -1</clus>
<clus scale="  373.896">  2  3  1 -1</clus>
<clus scale="  373.896">  1  3  2 -1</clus>
</clustering>
</event>
<event>
 6   2  0.3464723E-02  0.3829378E+03  0.7816531E-02  0.1049853E+00
        2   -1    0    0  504    0  0.00000000000E+00  0.00000000000E+00  0.19974773747E+04  0.19974773747E+04  0.00000000000E+00 0.  1.
       21   -1    0    0  502  503  0.00000000000E+00  0.00000000000E+00 -0.95188330787E+02  0.95188330787E+02  0.00000000000E+00 0.  1.
  1000006    1    1    2  501    0  0.52080554563E+02  0.15092196021E+03  0.92703163971E+03  0.10036819632E+04  0.35000000000E+03 0.  0.
 -1000006    1    1    2    0  503 -0.53773067573E+02 -0.14224782046E+03  0.70289460392E+03  0.79980423195E+03  0.35000000000E+03 0.  0.
       21    1    1    2  504  501  0.31296134804E+02  0.31437123749E+02  0.16410383462E+03  0.16999355676E+03  0.00000000000E+00 0. -1.
        2    1    1    2  502    0 -0.29603621794E+02 -0.40111263501E+02  0.10825896565E+03  0.11918595357E+03  0.00000000000E+00 0.  1.
<scales pt_clust_1="13000.00000" pt_clust_2="13000.00000" pt_clust_3="44.35922" pt_clust_4="47.12828"></scales>
<clustering>
<clus scale="   44.359">  1  5  2 -1</clus>
<clus scale="   47.128">  1  6  2 -1</clus>
<clus scale="  382.938">  2  4  1 -1</clus>
<clus scale="  382.938">  2  3  1 -1</clus>
</clustering>
</event>
<event>
 5   1  0.3464723E-02  0.3793947E+03  0.7816531E-02  0.1051158E+00
        3   -1    0    0  503    0  0.00000000000E+00  0.00000000000E+00  0.14132703149E+04  0.14132703149E+04  0.00000000000E+00 0. -1.
       21   -1    0    0  501  503  0.00000000000E+00  0.00000000000E+00 -0.20115335035E+03  0.20115335035E+03  0.00000000000E+00 0. -1.
  1000006    1    1    2  501    0  0.15467667376E+03 -0.15269664639E+02  0.80100451606E+02  0.39124687655E+03  0.35000000000E+03 0.  0.
 -1000006    1    1    2    0  502 -0.10681555988E+03  0.66042364603E+02  0.77732679095E+03  0.86168909572E+03  0.35000000000E+03 0.  0.
        3    1    1    2  502    0 -0.47861113881E+02 -0.50772699964E+02  0.35468972204E+03  0.36148769302E+03  0.00000000000E+00 0. -1.
<scales pt_clust_1="13000.00000" pt_clust_2="13000.00000" pt_clust_3="69.77502"></scales>
<clustering>
<clus scale="   69.775">  1  5  2 -1</clus>
<clus scale="  379.395">  1  4  2 -1</clus>
<clus scale="  379.395">  2  3  1 -1</clus>
</clustering>
</event>
<event>
 5   1  0.3464723E-02  0.5996587E+03  0.7816531E-02  0.9906114E-01
       21   -1    0    0  504  502  0.00000000000E+00  0.00000000000E+00  0.33452121733E+04  0.33452121733E+04  0.00000000000E+00 0. -1.
       21   -1    0    0  502  503  0.00000000000E+00  0.00000000000E+00 -0.58831017329E+03  0.58831017329E+03  0.00000000000E+00 0. -1.
  1000006    1    1    2  501    0  0.33980195948E+03  0.36742852929E+03  0.71433087290E+03  0.93980726310E+03  0.35000000000E+03 0.  0.
 -1000006    1    1    2    0  503 -0.37193445648E+03 -0.31064807319E+03 -0.28708858124E+03  0.66314200498E+03  0.35000000000E+03 0.  0.
       21    1    1    2  504  501  0.32132496999E+02 -0.56780456097E+02  0.23296597084E+04  0.23305730785E+04  0.00000000000E+00 0. -1.
<scales pt_clust_1="13000.00000" pt_clust_2="13000.00000" pt_clust_3="65.24199"></scales>
<clustering>
<clus scale="   65.242">  1  5  2 -1</clus>
<clus scale="  599.659">  2  4  1 -1</clus>
<clus scale="  599.659">  1  3  2 -1</clus>
</clustering>
</event>
<event>
 5   1  0.3464723E-02  0.5563787E+03  0.7816531E-02  0.1000028E+00
       21   -1    0    0  501  502  0.00000000000E+00  0.00000000000E+00  0.22536887625E+04  0.22536887625E+04  0.00000000000E+00 0.  1.
       21   -1    0    0  504  503  0.00000000000E+00  0.00000000000E+00 -0.33614449630E+03  0.33614449630E+03  0.00000000000E+00 0.  1.
  1000006    1    1    2  501    0 -0.17142483705E+03 -0.48803190078E+03  0.13497632064E+04  0.14872532818E+04  0.35000000000E+03 0.  0.
 -1000006    1    1    2    0  503  0.28651696509E+03  0.22126413996E+03  0.62893960322E+03  0.80567661963E+03  0.35000000000E+03 0.  0.
       21    1    1    2  504  502 -0.11509212804E+03  0.26676776082E+03 -0.61158543451E+02  0.29690335732E+03  0.00000000000E+00 0.  1.
<scales pt_clust_1="13000.00000" pt_clust_2="13000.00000" pt_clust_3="290.53612"></scales>
<clustering>
<clus scale="  290.536">  2  5  1 -1</clus>
<clus scale="  556.379">  2  4  1 -1</clus>
<clus scale="  556.379">  1  3  2 -1</clus>
</clustering>
</event>
<event>
 6   2  0.3464723E-02  0.3863796E+03  0.7816531E-02  0.1048601E+00
       21   -1    0    0  501  502  0.00000000000E+00  0.00000000000E+00  0.14032976842E+04  0.14032976842E+04  0.00000000000E+00 0.  1.
       21   -1    0    0  504  503  0.00000000000E+00  0.00000000000E+00 -0.30629875497E+03  0.30629875497E+03  0.00000000000E+00 0.  1.
  1000006    1    1    2  501    0  0.25386825400E+02  0.13392847866E+03  0.24779962554E+03  0.44998442497E+03  0.35000000000E+03 0.  0.
 -1000006    1    1    2    0  503 -0.19696754194E+03 -0.10054627563E+03  0.17783932847E+03  0.45059138127E+03  0.35000000000E+03 0.  0.
       21    1    1    2  504  505  0.53751572374E+02 -0.45535702053E+02 -0.44566994069E+02  0.83360354213E+02  0.00000000000E+00 0.  1.
       21    1    1    2  505  502  0.11782914416E+03  0.12153499027E+02  0.71592696927E+03  0.72566027870E+03  0.00000000000E+00 0.  1.
<scales pt_clust_1="13000.00000" pt_clust_2="13000.00000" pt_clust_3="70.44666" pt_clust_4="119.43857"></scales>
<clustering>
<clus scale="   70.447">  2  5  1 -1</clus>
<clus scale="  119.439">  1  6  2 -1</clus>
<clus scale="  386.380">  1  3  2 -1</clus>
<clus scale="  386.380">  1  3  2 -1</clus>
</clustering>
</event>
<event>
 6   2  0.3464723E-02  0.7028940E+03  0.7816531E-02  0.9845126E-01
       21   -1    0    0  503  502  0.00000000000E+00  0.00000000000E+00  0.74554775763E+03  0.74554775763E+03  0.00000000000E+00 0. -1.
       21   -1    0    0  501  503  0.00000000000E+00  0.00000000000E+00 -0.19719089193E+04  0.19719089193E+04  0.00000000000E+00 0. -1.
  1000006    1    1    2  501    0 -0.28133279146E+03 -0.63402161988E+02 -0.79732997343E+03  0.91728025174E+03  0.35000000000E+03 0.  0.
 -1000006    1    1    2    0  505 -0.12834657495E+03  0.54122175570E+03 -0.82503874438E+03  0.10547903876E+04  0.35000000000E+03 0.  0.
       21    1    1    2  504  502  0.27416287041E+03 -0.35234397506E+03  0.29148129148E+03  0.53317248574E+03  0.00000000000E+00 0. -1.
       21    1    1    2  505  504  0.13551649600E+03 -0.12547561865E+03  0.10452626465E+03  0.21221355180E+03  0.00000000000E+00 0. -1.
<scales pt_clust_1="13000.00000" pt_clust_2="13000.00000" pt_clust_3="611.71043" pt_clust_4="32.98220"></scales>
<clustering>
<clus scale="   32.982">  5  6 -1 -1</clus>
<clus scale="  453.506">  2  3  1 -1</clus>
<clus scale="  611.710">  1  5  2 -1</clus>
<clus scale="  702.894">  1  3  2 -1</clus>
</clustering>
</event>
<event>
 4   0  0.3464723E-02  0.3597869E+03  0.7816531E-02  0.1058668E+00
       21   -1    0    0  501  502  0.00000000000E+00  0.00000000000E+00  0.73371914302E+03  0.73371914302E+03  0.00000000000E+00 0. -1.
       21   -1    0    0  502  503  0.00000000000E+00  0.00000000000E+00 -0.17868309702E+03  0.17868309702E+03  0.00000000000E+00 0. -1.
  1000006    1    1    2  501    0  0.82198543633E+02 -0.13783677260E+02  0.32879954869E+03  0.48739689531E+03  0.35000000000E+03 0.  0.
 -1000006    1    1    2    0  503 -0.82198543633E+02  0.13783677260E+02  0.22623649731E+03  0.42500534473E+03  0.35000000000E+03 0.  0.
<scales pt_clust_1="13000.00000" pt_clust_2="13000.00000"></scales>
<clustering>
<clus scale="  359.787">  1  3  2 -1</clus>
<clus scale="  359.787">  1  3  2 -1</clus>
</clustering>
</event>
<event>
 6   2  0.3464723E-02  0.4493891E+03  0.7816531E-02  0.1027904E+00
       21   -1    0    0  501  503  0.00000000000E+00  0.00000000000E+00  0.15112995884E+04  0.15112995884E+04  0.00000000000E+00 0.  1.
        2   -1    0    0  504    0  0.00000000000E+00  0.00000000000E+00 -0.27221272600E+04  0.27221272600E+04  0.00000000000E+00 0. -1.
  1000006    1    1    2  501    0 -0.28137553664E+03  0.26543854856E+02  0.87539066158E+03  0.98421825792E+03  0.35000000000E+03 0.  0.
 -1000006    1    1    2    0  502  0.27745976526E+03 -0.44276506692E+02  0.46257928661E+03  0.64453388335E+03  0.35000000000E+03 0.  0.
       21    1    1    2  504  503  0.43407465134E+01  0.53448864717E+02  0.19661423150E+01  0.53660869686E+02  0.00000000000E+00 0.  1.
        2    1    1    2  502    0 -0.42497512965E+00 -0.35716212882E+02 -0.25507637621E+04  0.25510138374E+04  0.00000000000E+00 0. -1.
<scales pt_clust_1="13000.00000" pt_clust_2="13000.00000" pt_clust_3="48.24764" pt_clust_4="35.71874"></scales>
<clustering>
<clus scale="   35.719">  2  6  1 -1</clus>
<clus scale="   48.248">  2  5  1 -1</clus>
<clus scale="  449.389">  2  4  1 -1</clus>
<clus scale="  449.389">  1  3  2 -1</clus>
</clustering>
</event>
<event>
 4   0  0.3464723E-02  0.3727348E+03  0.7816531E-02  0.1053652E+00
       21   -1    0    0  501  502  0.00000000000E+00  0.00000000000E+00  0.32369077906E+03  0.32369077906E+03  0.00000000000E+00 0.  1.
       21   -1    0    0  502  503  0.00000000000E+00  0.00000000000E+00 -0.43320110161E+03  0.43320110161E+03  0.00000000000E+00 0.  1.
  1000006    1    1    2  501    0 -0.78450362561E+02  0.10137455105E+03 -0.18429326630E+02  0.37319016475E+03  0.35000000000E+03 0.  0.
 -1000006    1    1    2    0  503  0.78450362561E+02 -0.10137455105E+03 -0.91080995922E+02  0.38370171593E+03  0.35000000000E+03 0.  0.
<scales pt_clust_1="13000.00000" pt_clust_2="13000.00000"></scales>
<clustering>
<clus scale="  372.735">  1  3  2 -1</clus>
<clus scale="  372.735">  1  3  2 -1</clus>
</clustering>
</event>
<event>
 4   0  0.3464723E-02  0.4311423E+03  0.7816531E-02  0.1033500E+00
       21   -1    0    0  503  502  0.00000000000E+00  0.00000000000E+00  0.44054130728E+03  0.44054130728E+03  0.00000000000E+00 0.  1.
       21   -1    0    0  501  503  0.00000000000E+00  0.00000000000E+00 -0.73946349088E+03  0.73946349088E+03  0.00000000000E+00 0. -1.
  1000006    1    1    2  501    0 -0.25040827320E+03 -0.26065237159E+02 -0.53607787184E+03  0.68794126533E+03  0.35000000000E+03 0.  0.
 -1000006    1    1    2    0  502  0.25040827320E+03  0.26065237159E+02  0.23715568823E+03  0.49206353283E+03  0.35000000000E+03 0.  0.
<scales pt_clust_1="13000.00000" pt_clust_2="13000.00000"></scales>
<clustering>
<clus scale="  431.142">  2  3  1 -1</clus>
<clus scale="  431.142">  1  3  2 -1</clus>
</clustering>
</event>
<event>
 4   0  0.3464723E-02  0.3987409E+03  0.7816531E-02  0.1044217E+00
       21   -1    0    0  501  502  0.00000000000E+00  0.00000000000E+00  0.16493616399E+04  0.16493616399E+04  0.00000000000E+00 0. -1.
       21   -1    0    0  502  503  0.00000000000E+00  0.00000000000E+00 -0.12108904876E+03  0.12108904876E+03  0.00000000000E+00 0. -1.
  1000006    1    1    2  501    0 -0.14936400219E+03 -0.11909950689E+03  0.11638746221E+04  0.12302838834E+04  0.35000000000E+03 0.  0.
 -1000006    1    1    2    0  503  0.14936400219E+03  0.11909950689E+03  0.36439796902E+03  0.54016680527E+03  0.35000000000E+03 0.  0.
<scales pt_clust_1="13000.00000" pt_clust_2="13000.00000"></scales>
<clustering>
<clus scale="  398.741">  1  3  2 -1</clus>
<clus scale="  398.741">  1  3  2 -1</clus>
</clustering>
</event>
<event>
 5   1  0.3464723E-02  0.3929454E+03  0.7816531E-02  0.1046250E+00
       21   -1    0    0  501  502  0.00000000000E+00  0.00000000000E+00  0.24193679443E+03  0.24193679443E+03  0.00000000000E+00 0.  1.
       21   -1    0    0  504  503  0.00000000000E+00  0.00000000000E+00 -0.12931821027E+04  0.12931821027E+04  0.00000000000E+00 0.  1.
  1000006    1    1    2  501    0 -0.39940484509E+02  0.24440626513E+03 -0.38163357849E+03  0.57399812976E+03  0.35000000000E+03 0.  0.
 -1000006    1    1    2    0  503 -0.30787663580E+02 -0.14654950615E+03 -0.73210310697E+03  0.82516640578E+03  0.35000000000E+03 0.  0.
       21    1    1    2  504  502  0.70728148088E+02 -0.97856758981E+02  0.62491377204E+02  0.13595436159E+03  0.00000000000E+00 0.  1.
<scales pt_clust_1="13000.00000" pt_clust_2="13000.00000" pt_clust_3="120.74111"></scales>
<clustering>
<clus scale="  120.741">  1  5  2 -1</clus>
<clus scale="  392.945">  2  4  1 -1</clus>
<clus scale="  392.945">  1  3  2 -1</clus>
</clustering>
</event>
<event>
 6   2  0.3464723E-02  0.3977629E+03  0.7816531E-02  0.1044557E+00
       21   -1    0    0  504  502  0.00000000000E+00  0.00000000000E+00  0.82884680857E+03  0.82884680857E+03  0.00000000000E+00 0.  1.
       21   -1    0    0  502  503  0.00000000000E+00  0.00000000000E+00 -0.93296799216E+03  0.93296799216E+03  0.00000000000E+00 0.  1.
  1000006    1    1    2  501    0 -0.17420720558E+03 -0.26845804287E+02  0.55974116921E+03  0.68328546318E+03  0.35000000000E+03 0.  0.
 -1000006    1    1    2    0  505  0.12855453654E+03  0.11658362636E+02 -0.41854247785E+03  0.56066031789E+03  0.35000000000E+03 0.  0.
       21    1    1    2  504  501 -0.26014795267E+02  0.20939303406E+02  0.13077084578E+03  0.13496754464E+03  0.00000000000E+00 0.  1.
       21    1    1    2  505  503  0.71667464315E+02 -0.57518617559E+01 -0.37609072073E+03  0.38290147502E+03  0.00000000000E+00 0. -1.
<scales pt_clust_1="13000.00000" pt_clust_2="13000.00000" pt_clust_3="33.39497" pt_clust_4="71.76289"></scales>
<clustering>
<clus scale="   33.395">  1  5  2 -1</clus>
<clus scale="   71.763">  2  6  1 -1</clus>
<clus scale="  397.763">  1  3  2 -1</clus>
<clus scale="  397.763">  1  3  2 -1</clus>
</clustering>
</event>
<event>
 4   0  0.3464723E-02  0.3979387E+03  0.7816531E-02  0.1044496E+00
       21   -1    0    0  501  502  0.00000000000E+00  0.00000000000E+00  0.22908133878E+03  0.22908133878E+03  0.00000000000E+00 0. -1.
       21   -1    0    0  502  503  0.00000000000E+00  0.00000000000E+00 -0.78144166491E+03  0.78144166491E+03  0.00000000000E+00 0. -1.
  1000006    1    1    2  501    0 -0.10510778496E+03  0.15750420236E+03 -0.10453867160E+03  0.41144082695E+03  0.35000000000E+03 0.  0.
 -1000006    1    1    2    0  503  0.10510778496E+03 -0.15750420236E+03 -0.44782165453E+03  0.59908217674E+03  0.35000000000E+03 0.  0.
<scales pt_clust_1="13000.00000" pt_clust_2="13000.00000"></scales>
<clustering>
<clus scale="  397.939">  1  3  2 -1</clus>
<clus scale="  397.939">  1  3  2 -1</clus>
</clustering>
</event>
<event>
 6   2  0.3464723E-02  0.3531586E+03  0.7816531E-02  0.1061326E+00
       21   -1    0    0  501  502  0.00000000000E+00  0.00000000000E+00  0.22453693847E+03  0.22453693847E+03  0.00000000000E+00 0.  1.
       21   -1    0    0  504  503  0.00000000000E+00  0.00000000000E+00 -0.10374200615E+04  0.10374200615E+04  0.00000000000E+00 0.  1.
  1000006    1    1    2  501    0  0.62561182801E+02 -0.39469065413E+02 -0.48705037899E+02  0.36103170143E+03  0.35000000000E+03 0.  0.
 -1000006    1    1    2    0  503  0.22567890157E+02 -0.28872346365E+01 -0.45526659280E+03  0.57470454697E+03  0.35000000000E+03 0.  0.
       21    1    1    2  504  505 -0.60919518662E+02  0.12352672551E+02 -0.23206709003E+03  0.24024760259E+03  0.00000000000E+00 0.  1.
       21    1    1    2  505  502 -0.24209554297E+02  0.30003627498E+02 -0.76844402305E+02  0.85973148994E+02  0.00000000000E+00 0. -1.
<scales pt_clust_1="13000.00000" pt_clust_2="13000.00000" pt_clust_3="104.85070" pt_clust_4="34.80068"></scales>
<clustering>
<clus scale="   34.801">  5  6 -1 -1</clus>
<clus scale="  104.851">  2  5  1 -1</clus>
<clus scale="  353.159">  2  4  1 -1</clus>
<clus scale="  353.159">  1  3  2 -1</clus>
</clustering>
</event>
<event>
 4   0  0.3464723E-02  0.3767622E+03  0.7816531E-02  0.1052137E+00
       21   -1    0    0  501  502  0.00000000000E+00  0.00000000000E+00  0.61987474646E+03  0.61987474646E+03  0.00000000000E+00 0.  1.
       21   -1    0    0  502  503  0.00000000000E+00  0.00000000000E+00 -0.27913516374E+03  0.27913516374E+03  0.00000000000E+00 0.  1.
  1000006    1    1    2  501    0 -0.70370758907E+02 -0.12040658584E+03  0.36087598467E+03  0.52170994425E+03  0.35000000000E+03 0.  0.
 -1000006    1    1    2    0  503  0.70370758907E+02  0.12040658584E+03 -0.20136401951E+02  0.37729996595E+03  0.35000000000E+03 0.  0.
<scales pt_clust_1="13000.00000" pt_clust_2="13000.00000"></scales>
<clustering>
<clus scale="  376.762">  1  3  2 -1</clus>
<clus scale="  376.762">  1  3  2 -1</clus>
</clustering>
</event>
<event>
 5   1  0.3464723E-02  0.4075308E+03  0.7816531E-02  0.1041203E+00
       21   -1    0    0  501  502  0.00000000000E+00  0.00000000000E+00  0.16072814765E+04  0.16072814765E+04  0.00000000000E+00 0.  1.
       21   -1    0    0  504  503  0.00000000000E+00  0.00000000000E+00 -0.14093045823E+03  0.14093045823E+03  0.00000000000E+00 0.  1.
  1000006    1    1    2  501    0 -0.96811710192E+01  0.19286834323E+03  0.59056330693E+03  0.71313178473E+03  0.35000000000E+03 0.  0.
 -1000006    1    1    2    0  503  0.45019296394E+02 -0.21844626562E+03  0.47024050852E+03  0.62719346605E+03  0.35000000000E+03 0.  0.
       21    1    1    2  504  502 -0.35338125375E+02  0.25577922385E+02  0.40554720285E+03  0.40788668396E+03  0.00000000000E+00 0.  1.
<scales pt_clust_1="13000.00000" pt_clust_2="13000.00000" pt_clust_3="43.62354"></scales>
<clustering>
<clus scale="   43.624">  1  5  2 -1</clus>
<clus scale="  407.531">  1  3  2 -1</clus>
<clus scale="  407.531">  1  3  2 -1</clus>
</clustering>
</event>
<event>
 6   2  0.3464723E-02  0.3680958E+03  0.7816531E-02  0.1055423E+00
       21   -1    0    0  501  502  0.00000000000E+00  0.00000000000E+00  0.66817149891E+03  0.66817149891E+03  0.00000000000E+00 0.  1.
       21   -1    0    0  504  503  0.00000000000E+00  0.00000000000E+00 -0.45956786291E+03  0.45956786291E+03  0.00000000000E+00 0.  1.
  1000006    1    1    2  501    0  0.10420960672E+02 -0.77572761089E+02  0.23705535365E+03  0.42990856049E+03  0.35000000000E+03 0.  0.
 -1000006    1    1    2    0  505 -0.14822476309E+02  0.15899313760E+03  0.17716012978E+03  0.42353776124E+03  0.35000000000E+03 0.  0.
       21    1    1    2  504  502 -0.33669429342E+02 -0.43125608160E+02  0.67922348400E+01  0.55132413384E+02  0.00000000000E+00 0. -1.
       21    1    1    2  505  503  0.38070944979E+02 -0.38294768351E+02 -0.21240408228E+03  0.21916062672E+03  0.00000000000E+00 0. -1.
<scales pt_clust_1="13000.00000" pt_clust_2="13000.00000" pt_clust_3="55.63641" pt_clust_4="53.99895"></scales>
<clustering>
<clus scale="   53.999">  2  6  1 -1</clus>
<clus scale="   55.636">  2  5  1 -1</clus>
<clus scale="  368.096">  1  3  2 -1</clus>
<clus scale="  368.096">  1  3  2 -1</clus>
</clustering>
</event>
<event>
 5   1  0.3464723E-02  0.3641705E+03  0.7816531E-02  0.1056945E+00
       21   -1    0    0  504  502  0.00000000000E+00  0.00000000000E+00  0.47438067952E+03  0.47438067952E+03  0.00000000000E+00 0. -1.
       21   -1    0    0  501  503  0.00000000000E+00  0.00000000000E+00 -0.49111254614E+03  0.49111254614E+03  0.00000000000E+00 0. -1.
  1000006    1    1    2  501    0 -0.58589234204E+02 -0.70445680371E+02 -0.28839290763E+03  0.46267241264E+03  0.35000000000E+03 0.  0.
 -1000006    1    1    2    0  502  0.10007516768E+03  0.93245537934E+02  0.24091493762E+03  0.44637403229E+03  0.35000000000E+03 0.  0.
       21    1    1    2  504  503 -0.41485933478E+02 -0.22799857563E+02  0.30746103387E+02  0.56446780731E+02  0.00000000000E+00 0.  1.
<scales pt_clust_1="13000.00000" pt_clust_2="13000.00000" pt_clust_3="47.33832"></scales>
<clustering>
<clus scale="   47.338">  1  5  2 -1</clus>
<clus scale="  364.170">  1  4  2 -1</clus>
<clus scale="  364.170">  1  3  2 -1</clus>
</clustering>
</event>
<event>
 6   2  0.3464723E-02  0.3567197E+03  0.7816531E-02  0.1059890E+00
       21   -1    0    0  502  503  0.00000000000E+00  0.00000000000E+00  0.10144619299E+04  0.10144619299E+04  0.00000000000E+00 0.  1.
       -2   -1    0    0    0  501  0.00000000000E+00  0.00000000000E+00 -0.42082376003E+03  0.42082376003E+03  0.00000000000E+00 0.  1.
  1000006    1    1    2  502    0 -0.70829356574E+02  0.80125366965E+01  0.27061560187E+03  0.44812253065E+03  0.35000000000E+03 0.  0.
 -1000006    1    1    2    0  501 -0.14444655968E+03 -0.14862775868E+02 -0.29609783006E+02  0.38008216212E+03  0.35000000000E+03 0.  0.
       21    1    1    2  504  503  0.17670453629E+03  0.74290283245E+02  0.44610045671E+03  0.48554006715E+03  0.00000000000E+00 0.  1.
       -2    1    1    2    0  504  0.38571379963E+02 -0.67440044074E+02 -0.93468105682E+02  0.12154093005E+03  0.00000000000E+00 0.  1.
<scales pt_clust_1="13000.00000" pt_clust_2="13000.00000" pt_clust_3="192.34015" pt_clust_4="77.69112"></scales>
<clustering>
<clus scale="   77.691">  2  6  1 -1</clus>
<clus scale="  192.340">  1  5  2 -1</clus>
<clus scale="  356.720">  1  3  2 -1</clus>
<clus scale="  356.720">  1  3  2 -1</clus>
</clustering>
</event>
<event>
 6   2  0.3464723E-02  0.3577642E+03  0.7816531E-02  0.1059473E+00
       21   -1    0    0  501  502  0.00000000000E+00  0.00000000000E+00  0.55841338748E+03  0.55841338748E+03  0.00000000000E+00 0.  1.
       21   -1    0    0  505  503  0.00000000000E+00  0.00000000000E+00 -0.13727882941E+04  0.13727882941E+04  0.00000000000E+00 0. -1.
  1000006    1    1    2  501    0 -0.23319048797E+02 -0.66797271113E+02  0.24775410982E+03  0.43461218621E+03  0.35000000000E+03 0.  0.
 -1000006    1    1    2    0  504 -0.20575600696E+03  0.12522929543E+03 -0.32278482112E+03  0.53358031409E+03  0.35000000000E+03 0.  0.
       21    1    1    2  504  503  0.19671771756E+03 -0.81812138096E+02 -0.83373379889E+03  0.86052491757E+03  0.00000000000E+00 0. -1.
       21    1    1    2  505  502  0.32357338200E+02  0.23380113776E+02  0.94389603547E+02  0.10248426373E+03  0.00000000000E+00 0.  1.
<scales pt_clust_1="13000.00000" pt_clust_2="13000.00000" pt_clust_3="213.66275" pt_clust_4="39.92026"></scales>
<clustering>
<clus scale="   39.920">  1  6  2 -1</clus>
<clus scale="  213.663">  2  5  1 -1</clus>
<clus scale="  357.764">  1  3  2 -1</clus>
<clus scale="  357.764">  1  3  2 -1</clus>
</clustering>
</event>
<event>
 4   0  0.3464723E-02  0.5194877E+03  0.7816531E-02  0.1008814E+00
       21   -1    0    0  503  502  0.00000000000E+00  0.00000000000E+00  0.21236985942E+03  0.21236985942E+03  0.00000000000E+00 0.  1.
       21   -1    0    0  501  503  0.00000000000E+00  0.00000000000E+00 -0.12869602442E+04  0.12869602442E+04  0.00000000000E+00 0.  1.
  1000006    1    1    2  501    0 -0.14808430874E+03  0.35417298112E+03 -0.62144949615E+03  0.80997959192E+03  0.35000000000E+03 0.  0.
 -1000006    1    1    2    0  502  0.14808430874E+03 -0.35417298112E+03 -0.45314088864E+03  0.68935051172E+03  0.35000000000E+03 0.  0.
<scales pt_clust_1="13000.00000" pt_clust_2="13000.00000"></scales>
<clustering>
<clus scale="  519.488">  2  3  1 -1</clus>
<clus scale="  519.488">  1  3  2 -1</clus>
</clustering>
</event>
<event>
 5   1  0.3464723E-02  0.3868056E+03  0.7816531E-02  0.1048447E+00
       21   -1    0    0  501  503  0.00000000000E+00  0.00000000000E+00  0.43161974695E+03  0.43161974695E+03  0.00000000000E+00 0. -1.
        2   -1    0    0  503    0  0.00000000000E+00  0.00000000000E+00 -0.77442385824E+03  0.77442385824E+03  0.00000000000E+00 0. -1.
  1000006    1    1    2  501    0  0.64325293651E+00  0.16191117885E+03  0.13534049447E+03  0.40869633355E+03  0.35000000000E+03 0.  0.
 -1000006    1    1    2    0  502 -0.95046340235E+02 -0.15993838381E+03 -0.10166389409E+03  0.40920611038E+03  0.35000000000E+03 0.  0.
        2    1    1    2  502    0  0.94403087298E+02 -0.19727950431E+01 -0.37648071166E+03  0.38814116126E+03  0.00000000000E+00 0. -1.
<scales pt_clust_1="13000.00000" pt_clust_2="13000.00000" pt_clust_3="94.42370"></scales>
<clustering>
<clus scale="   94.424">  2  5  1 -1</clus>
<clus scale="  386.806">  2  4  1 -1</clus>
<clus scale="  386.806">  1  3  2 -1</clus>
</clustering>
</event>
<event>
 5   1  0.3464723E-02  0.3503847E+03  0.7816531E-02  0.1062457E+00
       21   -1    0    0  502  503  0.00000000000E+00  0.00000000000E+00  0.19241989480E+03  0.19241989480E+03  0.00000000000E+00 0. -1.
        2   -1    0    0  501    0  0.00000000000E+00  0.00000000000E+00 -0.11386943857E+04  0.11386943857E+04  0.00000000000E+00 0. -1.
  1000006    1    1    2  501    0  0.63588194310E+02 -0.18836741728E+02 -0.57486201325E+03  0.67628737647E+03  0.35000000000E+03 0.  0.
 -1000006    1    1    2    0  503  0.32798673505E+02  0.13538882724E+02 -0.98468007604E+02  0.36531493653E+03  0.35000000000E+03 0.  0.
        2    1    1    2  502    0 -0.96386867815E+02  0.52978590043E+01 -0.27294447009E+03  0.28951196754E+03  0.00000000000E+00 0. -1.
<scales pt_clust_1="13000.00000" pt_clust_2="13000.00000" pt_clust_3="96.53236"></scales>
<clustering>
<clus scale="   96.532">  2  5  1 -1</clus>
<clus scale="  350.385">  1  4  2 -1</clus>
<clus scale="  350.385">  1  3  2 -1</clus>
</clustering>
</event>
<event>
 4   0  0.3464723E-02  0.3778329E+03  0.7816531E-02  0.1051738E+00
       21   -1    0    0  503  502  0.00000000000E+00  0.00000000000E+00  0.15641638377E+03  0.15641638377E+03  0.00000000000E+00 0. -1.
       21   -1    0    0  501  503  0.00000000000E+00  0.00000000000E+00 -0.10416456370E+04  0.10416456370E+04  0.00000000000E+00 0. -1.
  1000006    1    1    2  501    0 -0.13758928292E+03  0.36426392287E+02 -0.65339528071E+03  0.75477353271E+03  0.35000000000E+03 0.  0.
 -1000006    1    1    2    0  502  0.13758928292E+03 -0.36426392287E+02 -0.23183397252E+03  0.44328848806E+03  0.35000000000E+03 0.  0.
<scales pt_clust_1="13000.00000" pt_clust_2="13000.00000"></scales>
<clustering>
<clus scale="  377.833">  2  3  1 -1</clus>
<clus scale="  377.833">  1  3  2 -1</clus>
</clustering>
</event>
<event>
 5   1  0.3464723E-02  0.3822175E+03  0.7816531E-02  0.1050117E+00
       21   -1    0    0  504  502  0.00000000000E+00  0.00000000000E+00  0.23301829223E+03  0.23301829223E+03  0.00000000000E+00 0. -1.
       21   -1    0    0  502  503  0.00000000000E+00  0.00000000000E+00 -0.10623761446E+04  0.10623761446E+04  0.00000000000E+00 0. -1.
  1000006    1    1    2  501    0 -0.18904373881E+03  0.36227218680E+02 -0.25712763501E+03  0.47504164790E+03  0.35000000000E+03 0.  0.
 -1000006    1    1    2    0  503  0.10763788179E+03 -0.92688414763E+02 -0.60736223524E+03  0.71523838028E+03  0.35000000000E+03 0.  0.
       21    1    1    2  504  501  0.81405857011E+02  0.56461196083E+02  0.35132017904E+02  0.10511440863E+03  0.00000000000E+00 0. -1.
<scales pt_clust_1="13000.00000" pt_clust_2="13000.00000" pt_clust_3="99.06957"></scales>
<clustering>
<clus scale="   99.070">  1  5  2 -1</clus>
<clus scale="  382.218">  1  3  2 -1</clus>
<clus scale="  382.218">  1  3  2 -1</clus>
</clustering>
</event>
<event>
 5   1  0.3464723E-02  0.3723568E+03  0.7816531E-02  0.1053795E+00
       21   -1    0    0  504  502  0.00000000000E+00  0.00000000000E+00  0.63933932416E+03  0.63933932416E+03  0.00000000000E+00 0. -1.
       21   -1    0    0  501  503  0.00000000000E+00  0.00000000000E+00 -0.99640099710E+03  0.99640099710E+03  0.00000000000E+00 0. -1.
  1000006    1    1    2  501    0 -0.80723313163E+02 -0.79358693308E+02 -0.46264221075E+03  0.59105995521E+03  0.35000000000E+03 0.  0.
 -1000006    1    1    2    0  502  0.10486155762E+03  0.98096868016E+02 -0.39280586907E+03  0.54535804070E+03  0.35000000000E+03 0.  0.
       21    1    1    2  504  503 -0.24138244457E+02 -0.18738174708E+02  0.49838640687E+03  0.49932232535E+03  0.00000000000E+00 0. -1.
<scales pt_clust_1="13000.00000" pt_clust_2="13000.00000" pt_clust_3="30.55772"></scales>
<clustering>
<clus scale="   30.558">  1  5  2 -1</clus>
<clus scale="  372.357">  2  3  1 -1</clus>
<clus scale="  372.357">  1  3  2 -1</clus>
</clustering>
</event>
<event>
 4   0  0.3464723E-02  0.3514472E+03  0.7816531E-02  0.1062023E+00
       21   -1    0    0  503  502  0.00000000000E+00  0.00000000000E+00  0.23056662647E+03  0.23056662647E+03  0.00000000000E+00 0.  1.
       21   -1    0    0  501  503  0.00000000000E+00  0.00000000000E+00 -0.53590172685E+03  0.53590172685E+03  0.00000000000E+00 0.  1.
  1000006    1    1    2  501    0 -0.12565894608E+02 -0.29278904355E+02 -0.16005368383E+03  0.38617656280E+03  0.35000000000E+03 0.  0.
 -1000006    1    1    2    0  502  0.12565894608E+02  0.29278904355E+02 -0.14528141655E+03  0.38029179053E+03  0.35000000000E+03 0.  0.
<scales pt_clust_1="13000.00000" pt_clust_2="13000.00000"></scales>
<clustering>
<clus scale="  351.447">  2  3  1 -1</clus>
<clus scale="  351.447">  1  3  2 -1</clus>
</clustering>
</event>
<event>
 5   1  0.3464723E-02  0.3528124E+03  0.7816531E-02  0.1061467E+00
        2   -1    0    0  501    0  0.00000000000E+00  0.00000000000E+00  0.19523863336E+04  0.19523863336E+04  0.00000000000E+00 0.  1.
       21   -1    0    0  502  503  0.00000000000E+00  0.00000000000E+00 -0.11044241328E+04  0.11044241328E+04  0.00000000000E+00 0. -1.
  1000006    1    1    2  501    0  0.14315896723E+02 -0.54990226149E+01 -0.20712522955E+03  0.40698408429E+03  0.35000000000E+03 0.  0.
 -1000006    1    1    2    0  503 -0.52702474971E+02  0.18762445783E+02 -0.75774203713E+03  0.83654203426E+03  0.35000000000E+03 0.  0.
        2    1    1    2  502    0  0.38386578248E+02 -0.13263423168E+02  0.18128294676E+04  0.18132843479E+04  0.00000000000E+00 0.  1.
<scales pt_clust_1="13000.00000" pt_clust_2="13000.00000" pt_clust_3="40.61339"></scales>
<clustering>
<clus scale="   40.613">  1  5  2 -1</clus>
<clus scale="  352.812">  1  3  2 -1</clus>
<clus scale="  352.812">  2  3  1 -1</clus>
</clustering>
</event>
<event>
 6   2  0.3464723E-02  0.6331901E+03  0.7816531E-02  0.1001248E+00
        2   -1    0    0  504    0  0.00000000000E+00  0.00000000000E+00  0.83425070144E+03  0.83425070144E+03  0.00000000000E+00 0. -1.
       21   -1    0    0  501  503  0.00000000000E+00  0.00000000000E+00 -0.13719790646E+04  0.13719790646E+04  0.00000000000E+00 0. -1.
  1000006    1    1    2  501    0 -0.28378557269E+03  0.35749415605E+03 -0.52602435074E+03  0.77944720183E+03  0.35000000000E+03 0.  0.
 -1000006    1    1    2    0  502  0.10054813380E+02  0.26851054862E+02  0.27142774324E+03  0.44384129846E+03  0.35000000000E+03 0.  0.
       21    1    1    2  504  503  0.42497037303E+03 -0.44993067084E+03 -0.43684829097E+03  0.75754462300E+03  0.00000000000E+00 0. -1.
        2    1    1    2  502    0 -0.15123961372E+03  0.65585459935E+02  0.15371653534E+03  0.22539664272E+03  0.00000000000E+00 0. -1.
<scales pt_clust_1="13000.00000" pt_clust_2="13000.00000" pt_clust_3="527.66443" pt_clust_4="164.84803"></scales>
<clustering>
<clus scale="  164.848">  1  6  2 -1</clus>
<clus scale="  363.251">  1  4  2 -1</clus>
<clus scale="  527.664">  1  5  2 -1</clus>
<clus scale="  633.190">  2  3  1 -1</clus>
</clustering>
</event>
<event>
 6   2  0.3464723E-02  0.6810337E+03  0.7816531E-02  0.9750228E-01
       21   -1    0    0  505  502  0.00000000000E+00  0.00000000000E+00  0.15205981170E+04  0.15205981170E+04  0.00000000000E+00 0.  1.
       21   -1    0    0  504  503  0.00000000000E+00  0.00000000000E+00 -0.15490144824E+04  0.15490144824E+04  0.00000000000E+00 0. -1.
  1000006    1    1    2  501    0  0.63975663388E+02 -0.47862202059E+03 -0.12324269999E+03  0.60898332260E+03  0.35000000000E+03 0.  0.
 -1000006    1    1    2    0  503  0.10121107739E+03  0.63114931619E+03 -0.10428325954E+04  0.12722393500E+04  0.35000000000E+03 0.  0.
       21    1    1    2  504  502 -0.95029225752E+02 -0.92037144779E+02  0.16572854305E+03  0.21205503943E+03  0.00000000000E+00 0.  1.
       21    1    1    2  505  501 -0.70157515023E+02 -0.60490150815E+02  0.97193038695E+03  0.97633488739E+03  0.00000000000E+00 0.  1.
<scales pt_clust_1="13000.00000" pt_clust_2="13000.00000" pt_clust_3="164.26976" pt_clust_4="92.63442"></scales>
<clustering>
<clus scale="   92.634">  1  6  2 -1</clus>
<clus scale="  164.270">  1  5  2 -1</clus>
<clus scale="  681.034">  2  4  1 -1</clus>
<clus scale="  681.034">  1  3  2 -1</clus>
</clustering>
</event>
<event>
 4   0  0.3464723E-02  0.3564329E+03  0.7816531E-02  0.1060005E+00
       21   -1    0    0  503  502  0.00000000000E+00  0.00000000000E+00  0.51507975933E+03  0.51507975933E+03  0.00000000000E+00 0.  1.
       21   -1    0    0  501  503  0.00000000000E+00  0.00000000000E+00 -0.25460301789E+03  0.25460301789E+03  0.00000000000E+00 0.  1.
  1000006    1    1    2  501    0  0.32304854793E+02 -0.59167426538E+02  0.62221317114E+02  0.36182299583E+03  0.35000000000E+03 0.  0.
 -1000006    1    1    2    0  502 -0.32304854793E+02  0.59167426538E+02  0.19825542432E+03  0.40785978140E+03  0.35000000000E+03 0.  0.
<scales pt_clust_1="13000.00000" pt_clust_2="13000.00000"></scales>
<clustering>
<clus scale="  356.433">  2  3  1 -1</clus>
<clus scale="  356.433">  1  3  2 -1</clus>
</clustering>
</event>
<event>
 6   2  0.3464723E-02  0.4132295E+03  0.7816531E-02  0.1039293E+00
       21   -1    0    0  504  502  0.00000000000E+00  0.00000000000E+00  0.13079807779E+04  0.13079807779E+04  0.00000000000E+00 0.  1.
       21   -1    0    0  502  503  0.00000000000E+00  0.00000000000E+00 -0.18410464764E+04  0.18410464764E+04  0.00000000000E+00 0. -1.
  1000006    1    1    2  501    0 -0.53687956759E+02 -0.18185008219E+03 -0.74321432826E+03  0.84310105375E+03  0.35000000000E+03 0.  0.
 -1000006    1    1    2    0  503  0.18087400466E+03  0.18562423538E+03 -0.99787139083E+03  0.10887695233E+04  0.35000000000E+03 0.  0.
       21    1    1    2  504  505 -0.42871089963E+02  0.34527865972E+02  0.37813750304E+03  0.38212311509E+03  0.00000000000E+00 0.  1.
       21    1    1    2  505  501 -0.84314957933E+02 -0.38302019163E+02  0.82988251763E+03  0.83503356212E+03  0.00000000000E+00 0.  1.
<scales pt_clust_1="13000.00000" pt_clust_2="13000.00000" pt_clust_3="55.04638" pt_clust_4="122.99672"></scales>
<clustering>
<clus scale="   55.046">  1  5  2 -1</clus>
<clus scale="  122.997">  1  6  2 -1</clus>
<clus scale="  413.229">  1  3  2 -1</clus>
<clus scale="  413.229">  1  3  2 -1</clus>
</clustering>
</event>
<event>
 6   2  0.3464723E-02  0.7147537E+03  0.7816531E-02  0.9692329E-01
       -2   -1    0    0    0  501  0.00000000000E+00  0.00000000000E+00  0.83615378318E+03  0.83615378318E+03  0.00000000000E+00 0.  1.
       21   -1    0    0  502  503  0.00000000000E+00  0.00000000000E+00 -0.86892204634E+03  0.86892204634E+03  0.00000000000E+00 0. -1.
  1000006    1    1    2  502    0  0.64082699374E+03 -0.24371571074E+03 -0.53096855488E+02  0.77160602617E+03  0.35000000000E+03 0.  0.
 -1000006    1    1    2    0  501 -0.53694115057E+03  0.18323175682E+03  0.15978357528E+01  0.66662000342E+03  0.35000000000E+03 0.  0.
       21    1    1    2  504  503 -0.98196521890E+02 -0.30996684584E+02 -0.81283845383E+02  0.13118847086E+03  0.00000000000E+00 0. -1.
       -2    1    1    2    0  504 -0.56893212775E+01  0.91480638511E+02  0.10001460196E+03  0.13566132907E+03  0.00000000000E+00 0.  1.
<scales pt_clust_1="13000.00000" pt_clust_2="13000.00000" pt_clust_3="102.25116" pt_clust_4="91.65738"></scales>
<clustering>
<clus scale="   91.657">  1  6  2 -1</clus>
<clus scale="  102.251">  2  5  1 -1</clus>
<clus scale="  714.754">  2  3  1 -1</clus>
<clus scale="  714.754">  2  3  1 -1</clus>
</clustering>
</event>
<event>
 5   1  0.3464723E-02  0.6090218E+03  0.7816531E-02  0.9886863E-01
        2   -1    0    0  502    0  0.00000000000E+00  0.00000000000E+00  0.35121831651E+04  0.35121831651E+04  0.00000000000E+00 0.  1.
       -2   -1    0    0    0  501  0.00000000000E+00  0.00000000000E+00 -0.22484080584E+03  0.22484080584E+03  0.00000000000E+00 0. -1.
  1000006    1    1    2  502    0  0.38979767628E+03  0.33886705208E+03  0.21124319795E+04  0.22026443143E+04  0.35000000000E+03 0.  0.
 -1000006    1    1    2    0  503 -0.34433503241E+03 -0.32415472652E+03  0.12855935321E+04  0.14138223477E+04  0.35000000000E+03 0.  0.
       21    1    1    2  503  501 -0.45462643868E+02 -0.14712325555E+02 -0.11068315233E+03  0.12055730886E+03  0.00000000000E+00 0.  1.
<scales pt_clust_1="13000.00000" pt_clust_2="13000.00000" pt_clust_3="47.78394"></scales>
<clustering>
<clus scale="   47.784">  2  5  1 -1</clus>
<clus scale=" 1078.179">  3  4 -1 -1</clus>
<clus scale="  609.022">  1  3  2 -1</clus>
</clustering>
</event>
<event>
 4   0  0.3464723E-02  0.4100899E+03  0.7816531E-02  0.1040341E+00
       21   -1    0    0  503  502  0.00000000000E+00  0.00000000000E+00  0.34418728152E+03  0.34418728152E+03  0.00000000000E+00 0.  1.
       21   -1    0    0  501  503  0.00000000000E+00  0.00000000000E+00 -0.49988727818E+03  0.49988727818E+03  0.00000000000E+00 0.  1.
  1000006    1    1    2  501    0  0.24414705912E+02  0.21231504631E+03 -0.14123609811E+03  0.43372963026E+03  0.35000000000E+03 0.  0.
 -1000006    1    1    2    0  502 -0.24414705912E+02 -0.21231504631E+03 -0.14463898543E+02  0.41034492944E+03  0.35000000000E+03 0.  0.
<scales pt_clust_1="13000.00000" pt_clust_2="13000.00000"></scales>
<clustering>
<clus scale="  410.090">  2  3  1 -1</clus>
<clus scale="  410.090">  1  3  2 -1</clus>
</clustering>
</event>
<event>
 4   0  0.3464723E-02  0.3788833E+03  0.7816531E-02  0.1051347E+00
       21   -1    0    0  501  502  0.00000000000E+00  0.00000000000E+00  0.68948204672E+03  0.68948204672E+03  0.00000000000E+00 0. -1.
       21   -1    0    0  502  503  0.00000000000E+00  0.00000000000E+00 -0.25669651943E+03  0.25669651943E+03  0.00000000000E+00 0. -1.
  1000006    1    1    2  501    0  0.12510564218E+03 -0.73492633824E+02  0.42201621517E+03  0.56714219980E+03  0.35000000000E+03 0.  0.
 -1000006    1    1    2    0  503 -0.12510564218E+03  0.73492633824E+02  0.10769312120E+02  0.37903636635E+03  0.35000000000E+03 0.  0.
<scales pt_clust_1="13000.00000" pt_clust_2="13000.00000"></scales>
<clustering>
<clus scale="  378.883">  1  3  2 -1</clus>
<clus scale="  378.883">  1  3  2 -1</clus>
</clustering>
</event>
<event>
 5   1  0.3464723E-02  0.5102291E+03  0.7816531E-02  0.1011143E+00
       21   -1    0    0  504  502  0.00000000000E+00  0.00000000000E+00  0.13912254025E+04  0.13912254025E+04  0.00000000000E+00 0.  1.
       21   -1    0    0  501  503  0.00000000000E+00  0.00000000000E+00 -0.24095167757E+03  0.24095167757E+03  0.00000000000E+00 0.  1.
  1000006    1    1    2  501    0 -0.58765911969E+02 -0.37590725127E+03  0.21975927741E+03  0.56174178586E+03  0.35000000000E+03 0.  0.
 -1000006    1    1    2    0  502  0.52483562524E+02  0.34588909917E+03  0.84078082321E+03  0.97560554834E+03  0.35000000000E+03 0.  0.
       21    1    1    2  504  503  0.62823494450E+01  0.30018152103E+02  0.89733624263E+02  0.94829745827E+02  0.00000000000E+00 0.  1.
<scales pt_clust_1="13000.00000" pt_clust_2="13000.00000" pt_clust_3="30.66851"></scales>
<clustering>
<clus scale="   30.669">  1  5  2 -1</clus>
<clus scale="  510.229">  1  4  2 -1</clus>
<clus scale="  510.229">  1  3  2 -1</clus>
</clustering>
</event>
<event>
 5   1  0.3464723E-02  0.3968865E+03  0.7816531E-02  0.1044863E+00
       21   -1    0    0  501  502  0.00000000000E+00  0.00000000000E+00  0.45027720532E+03  0.45027720532E+03  0.00000000000E+00 0.  1.
       21   -1    0    0  504  503  0.00000000000E+00  0.00000000000E+00 -0.18206801983E+04  0.18206801983E+04  0.00000000000E+00 0.  1.
  1000006    1    1    2  501    0  0.79527165280E+02 -0.13923031797E+03 -0.42901084547E+03  0.57641994847E+03  0.35000000000E+03 0.  0.
 -1000006    1    1    2    0  503 -0.23767590398E+03 -0.41545524760E+02 -0.12402735530E+04  0.13111042492E+04  0.35000000000E+03 0.  0.
       21    1    1    2  504  502  0.15814873870E+03  0.18077584273E+03  0.29888140551E+03  0.38343320595E+03  0.00000000000E+00 0.  1.
<scales pt_clust_1="13000.00000" pt_clust_2="13000.00000" pt_clust_3="240.18936"></scales>
<clustering>
<clus scale="  240.189">  1  5  2 -1</clus>
<clus scale="  396.886">  1  3  2 -1</clus>
<clus scale="  396.886">  1  3  2 -1</clus>
</clustering>
</event>
<event>
 5   1  0.3464723E-02  0.5337197E+03  0.7816531E-02  0.1005334E+00
       21   -1    0    0  501  502  0.00000000000E+00  0.00000000000E+00  0.19671914750E+04  0.19671914750E+04  0.00000000000E+00 0.  1.
       21   -1    0    0  504  503  0.00000000000E+00  0.00000000000E+00 -0.40342160441E+03  0.40342160441E+03  0.00000000000E+00 0.  1.
  1000006    1    1    2  501    0  0.83918274258E+02 -0.49489925534E+03  0.11415094858E+04  0.12951878072E+04  0.35000000000E+03 0.  0.
 -1000006    1    1    2    0  503 -0.23667817970E+03  0.22985947252E+03  0.56147359461E+03  0.73932708275E+03  0.35000000000E+03 0.  0.
       21    1    1    2  504  502  0.15275990544E+03  0.26503978282E+03 -0.13921320981E+03  0.33609818948E+03  0.00000000000E+00 0.  1.
<scales pt_clust_1="13000.00000" pt_clust_2="13000.00000" pt_clust_3="305.91122"></scales>
<clustering>
<clus scale="  305.911">  2  5  1 -1</clus>
<clus scale="  533.720">  2  4  1 -1</clus>
<clus scale="  533.720">  1  3  2 -1</clus>
</clustering>
</event>
<event>
 4   0  0.3464723E-02  0.5422619E+03  0.7816531E-02  0.1003301E+00
       21   -1    0    0  501  502  0.00000000000E+00  0.00000000000E+00  0.58358936641E+03  0.58358936641E+03  0.00000000000E+00 0. -1.
       21   -1    0    0  502  503  0.00000000000E+00  0.00000000000E+00 -0.65323445729E+03  0.65323445729E+03  0.00000000000E+00 0.  1.
  1000006    1    1    2  501    0  0.12447206144E+03 -0.39503750910E+03  0.26089698335E+03  0.60176005484E+03  0.35000000000E+03 0.  0.
 -1000006    1    1    2    0  503 -0.12447206144E+03  0.39503750910E+03 -0.33054207423E+03  0.63506376886E+03  0.35000000000E+03 0.  0.
<scales pt_clust_1="13000.00000" pt_clust_2="13000.00000"></scales>
<clustering>
<clus scale="  542.262">  1  3  2 -1</clus>
<clus scale="  542.262">  1  3  2 -1</clus>
</clustering>
</event>
<event>
 6   2  0.3464723E-02  0.4052514E+03  0.7816531E-02  0.1041976E+00
       21   -1    0    0  502  503  0.00000000000E+00  0.00000000000E+00  0.49262358383E+03  0.49262358383E+03  0.00000000000E+00 0.  1.
        2   -1    0    0  501    0  0.00000000000E+00  0.00000000000E+00 -0.12343069254E+04  0.12343069254E+04  0.00000000000E+00 0.  1.
  1000006    1    1    2  501    0 -0.12856353019E+03 -0.14567109205E+03 -0.11396090065E+03  0.41621597186E+03  0.35000000000E+03 0.  0.
 -1000006    1    1    2    0  504 -0.32621264066E+03  0.23618160754E+03 -0.13282017855E+03  0.54985237882E+03  0.35000000000E+03 0.  0.
       21    1    1    2  504  503  0.27419794472E+03  0.46716426234E+01 -0.60416140201E+02  0.28081390125E+03  0.00000000000E+00 0.  1.
        2    1    1    2  502    0  0.18057822612E+03 -0.95182158113E+02 -0.43448612217E+03  0.48004825730E+03  0.00000000000E+00 0.  1.
<scales pt_clust_1="13000.00000" pt_clust_2="13000.00000" pt_clust_3="314.26684" pt_clust_4="204.12775"></scales>
<clustering>
<clus scale="  204.128">  2  6  1 -1</clus>
<clus scale="  314.267">  1  5  2 -1</clus>
<clus scale="  405.251">  1  4  2 -1</clus>
<clus scale="  405.251">  1  3  2 -1</clus>
</clustering>
</event>
<event>
 6   2  0.3464723E-02  0.3512678E+03  0.7816531E-02  0.1062096E+00
       21   -1    0    0  503  502  0.00000000000E+00  0.00000000000E+00  0.54399546654E+03  0.54399546654E+03  0.00000000000E+00 0.  1.
       21   -1    0    0  505  503  0.00000000000E+00  0.00000000000E+00 -0.34879928471E+03  0.34879928471E+03  0.00000000000E+00 0.  1.
  1000006    1    1    2  501    0  0.71608144689E+02  0.76574625881E+01  0.59880267930E+02  0.36231479352E+03  0.35000000000E+03 0.  0.
 -1000006    1    1    2    0  502 -0.27341095938E+00  0.19890251449E+02  0.21319262462E+03  0.41030085553E+03  0.35000000000E+03 0.  0.
       21    1    1    2  504  501 -0.51332077695E+02 -0.40833247137E+01 -0.21258688451E+02  0.55709851695E+02  0.00000000000E+00 0. -1.
       21    1    1    2  505  504 -0.20002656035E+02 -0.23464389324E+02 -0.56618022267E+02  0.64469250501E+02  0.00000000000E+00 0.  1.
<scales pt_clust_1="13000.00000" pt_clust_2="13000.00000" pt_clust_3="54.48256" pt_clust_4="30.83316"></scales>
<clustering>
<clus scale="   30.833">  2  6  1 -1</clus>
<clus scale="   54.483">  2  5  1 -1</clus>
<clus scale="  351.268">  2  3  1 -1</clus>
<clus scale="  351.268">  1  3  2 -1</clus>
</clustering>
</event>
<event>
 5   1  0.3464723E-02  0.3671671E+03  0.7816531E-02  0.1055782E+00
       21   -1    0    0  504  502  0.00000000000E+00  0.00000000000E+00  0.13197847219E+03  0.13197847219E+03  0.00000000000E+00 0.  1.
       21   -1    0    0  501  503  0.00000000000E+00  0.00000000000E+00 -0.12986975330E+04  0.12986975330E+04  0.00000000000E+00 0.  1.
  1000006    1    1    2  501    0  0.15025406882E+03 -0.21926622772E+02 -0.63499562450E+03  0.74079450937E+03  0.35000000000E+03 0.  0.
 -1000006    1    1    2    0  502 -0.83694032994E+02  0.93120098358E+01 -0.37852060362E+03  0.52236888504E+03  0.35000000000E+03 0.  0.
       21    1    1    2  504  503 -0.66560035831E+02  0.12614612936E+02 -0.15320283268E+03  0.16751261078E+03  0.00000000000E+00 0.  1.
<scales pt_clust_1="13000.00000" pt_clust_2="13000.00000" pt_clust_3="67.74487"></scales>
<clustering>
<clus scale="   67.745">  2  5  1 -1</clus>
<clus scale="  367.167">  2  3  1 -1</clus>
<clus scale="  367.167">  1  3  2 -1</clus>
</clustering>
</event>
<event>
 5   1  0.3464723E-02  0.4107467E+03  0.7816531E-02  0.1040121E+00
       21   -1    0    0  503  502  0.00000000000E+00  0.00000000000E+00  0.55940630346E+03  0.55940630346E+03  0.00000000000E+00 0. -1.
       21   -1    0    0  501  503  0.00000000000E+00  0.00000000000E+00 -0.69762089191E+03  0.69762089191E+03  0.00000000000E+00 0. -1.
  1000006    1    1    2  501    0  0.35598268176E+01  0.21875369617E+03 -0.33684894218E+03  0.53275985378E+03  0.35000000000E+03 0.  0.
 -1000006    1    1    2    0  504 -0.42489619704E+02 -0.20673856691E+03 -0.10170513869E+03  0.42117708635E+03  0.35000000000E+03 0.  0.
       21    1    1    2  504  502  0.38929792886E+02 -0.12015129257E+02  0.30033949242E+03  0.30309025523E+03  0.00000000000E+00 0. -1.
<scales pt_clust_1="13000.00000" pt_clust_2="13000.00000" pt_clust_3="40.74177"></scales>
<clustering>
<clus scale="   40.742">  1  5  2 -1</clus>
<clus scale="  410.747">  1  4  2 -1</clus>
<clus scale="  410.747">  1  3  2 -1</clus>
</clustering>
</event>
<event>
 4   0  0.3464723E-02  0.3972665E+03  0.7816531E-02  0.1044730E+00
       -2   -1    0    0    0  501  0.00000000000E+00  0.00000000000E+00  0.16167883120E+03  0.16167883120E+03  0.00000000000E+00 0.  1.
        2   -1    0    0  502    0  0.00000000000E+00  0.00000000000E+00 -0.19464744510E+04  0.19464744510E+04  0.00000000000E+00 0. -1.
  1000006    1    1    2  502    0 -0.17584908966E+03  0.66315570590E+02 -0.16366314156E+04  0.16841564796E+04  0.35000000000E+03 0.  0.
 -1000006    1    1    2    0  501  0.17584908966E+03 -0.66315570590E+02 -0.14816420424E+03  0.42399680265E+03  0.35000000000E+03 0.  0.
<scales pt_clust_1="13000.00000" pt_clust_2="13000.00000"></scales>
<clustering>
<clus scale="  944.095">  3  4 -1 -1</clus>
<clus scale="  397.266">  2  3  1 -1</clus>
</clustering>
</event>
<event>
 5   1  0.3464723E-02  0.4017270E+03  0.7816531E-02  0.1043183E+00
       21   -1    0    0  504  502  0.00000000000E+00  0.00000000000E+00  0.18370620121E+03  0.18370620121E+03  0.00000000000E+00 0.  1.
       21   -1    0    0  501  503  0.00000000000E+00  0.00000000000E+00 -0.16666571947E+04  0.16666571947E+04  0.00000000000E+00 0.  1.
  1000006    1    1    2  501    0  0.10957699745E+03 -0.16131334116E+03 -0.13087008915E+04  0.13686588822E+04  0.35000000000E+03 0.  0.
 -1000006    1    1    2    0  502 -0.89408548044E+02  0.19000007365E+03 -0.13698204386E+03  0.43053222503E+03  0.35000000000E+03 0.  0.
       21    1    1    2  504  503 -0.20168449410E+02 -0.28686732494E+02 -0.37268058175E+02  0.51172288721E+02  0.00000000000E+00 0. -1.
<scales pt_clust_1="13000.00000" pt_clust_2="13000.00000" pt_clust_3="35.06701"></scales>
<clustering>
<clus scale="   35.067">  1  5  2 -1</clus>
<clus scale="  401.727">  1  4  2 -1</clus>
<clus scale="  401.727">  1  3  2 -1</clus>
</clustering>
</event>
<event>
 5   1  0.3464723E-02  0.3799893E+03  0.7816531E-02  0.1050938E+00
       21   -1    0    0  504  502  0.00000000000E+00  0.00000000000E+00  0.31165321651E+03  0.31165321651E+03  0.00000000000E+00 0. -1.
       21   -1    0    0  501  503  0.00000000000E+00  0.00000000000E+00 -0.75507404631E+03  0.75507404631E+03  0.00000000000E+00 0. -1.
  1000006    1    1    2  501    0  0.92146827440E+02  0.10934572128E+03 -0.49550031882E+03  0.62327208386E+03  0.35000000000E+03 0.  0.
 -1000006    1    1    2    0  502 -0.82312229693E+02 -0.14327877639E+03  0.82152853566E+01  0.38713253782E+03  0.35000000000E+03 0.  0.
       21    1    1    2  504  503 -0.98345977473E+01  0.33933055116E+02  0.43864203669E+02  0.56322641147E+02  0.00000000000E+00 0. -1.
<scales pt_clust_1="13000.00000" pt_clust_2="13000.00000" pt_clust_3="35.32947"></scales>
<clustering>
<clus scale="   35.329">  1  5  2 -1</clus>
<clus scale="  379.989">  1  4  2 -1</clus>
<clus scale="  379.989">  1  3  2 -1</clus>
</clustering>
</event>
<event>
 6   2  0.3464723E-02  0.3832075E+03  0.7816531E-02  0.1049755E+00
       21   -1    0    0  504  502  0.00000000000E+00  0.00000000000E+00  0.13731093861E+04  0.13731093861E+04  0.00000000000E+00 0.  1.
       21   -1    0    0  502  503  0.00000000000E+00  0.00000000000E+00 -0.18719656910E+03  0.18719656910E+03  0.00000000000E+00 0.  1.
  1000006    1    1    2  501    0  0.16544304255E+03  0.11048021181E+03  0.47979306453E+03  0.62632153268E+03  0.35000000000E+03 0.  0.
 -1000006    1    1    2    0  503 -0.11463268913E+03 -0.60766389738E+02  0.24166435847E+03  0.44467389140E+03  0.35000000000E+03 0.  0.
       21    1    1    2  504  505  0.36292013049E+02 -0.20173421079E+02  0.28140952976E+03  0.28445632454E+03  0.00000000000E+00 0. -1.
       21    1    1    2  505  501 -0.87102366464E+02 -0.29540400994E+02  0.18304586425E+03  0.20485420658E+03  0.00000000000E+00 0.  1.
<scales pt_clust_1="13000.00000" pt_clust_2="13000.00000" pt_clust_3="41.52201" pt_clust_4="87.18541"></scales>
<clustering>
<clus scale="   41.522">  1  5  2 -1</clus>
<clus scale="   87.185">  1  6  2 -1</clus>
<clus scale="  383.208">  1  3  2 -1</clus>
<clus scale="  383.208">  1  3  2 -1</clus>
</clustering>
</event>
<event>
 4   0  0.3464723E-02  0.6202456E+03  0.7816531E-02  0.9864271E-01
       21   -1    0    0  501  502  0.00000000000E+00  0.00000000000E+00  0.51790046327E+03  0.51790046327E+03  0.00000000000E+00 0.  1.
       21   -1    0    0  502  503  0.00000000000E+00  0.00000000000E+00 -0.74282220301E+03  0.74282220301E+03  0.00000000000E+00 0. -1.
  1000006    1    1    2  501    0  0.31269735507E+03 -0.40549348834E+03 -0.11059847592E+03  0.63002906903E+03  0.35000000000E+03 0.  0.
 -1000006    1    1    2    0  503 -0.31269735507E+03  0.40549348834E+03 -0.11432326382E+03  0.63069359724E+03  0.35000000000E+03 0.  0.
<scales pt_clust_1="13000.00000" pt_clust_2="13000.00000"></scales>
<clustering>
<clus scale="  620.246">  1  3  2 -1</clus>
<clus scale="  620.246">  1  3  2 -1</clus>
</clustering>
</event>
<event>
 6   2  0.3464723E-02  0.3897461E+03  0.7816531E-02  0.1047389E+00
        2   -1    0    0  503    0  0.00000000000E+00  0.00000000000E+00  0.15316518912E+04  0.15316518912E+04  0.00000000000E+00 0.  1.
       21   -1    0    0  504  503  0.00000000000E+00  0.00000000000E+00 -0.35342794878E+03  0.35342794878E+03  0.00000000000E+00 0.  1.
  1000006    1    1    2  501    0  0.13103376089E+03  0.27826128992E+03  0.36935019637E+03  0.59457443564E+03  0.35000000000E+03 0.  0.
 -1000006    1    1    2    0  502 -0.11244206957E+03  0.25428530555E+02  0.37135345729E+03  0.52315697397E+03  0.35000000000E+03 0.  0.
       21    1    1    2  504  501 -0.88347758830E+02 -0.19811541201E+02 -0.11253763752E+03  0.14443871888E+03  0.00000000000E+00 0.  1.
        2    1    1    2  502    0  0.69756067508E+02 -0.28387827928E+03  0.55005792624E+03  0.62290971145E+03  0.00000000000E+00 0.  1.
<scales pt_clust_1="13000.00000" pt_clust_2="13000.00000" pt_clust_3="90.54183" pt_clust_4="292.39234"></scales>
<clustering>
<clus scale="   90.542">  2  5  1 -1</clus>
<clus scale="  292.392">  1  6  2 -1</clus>
<clus scale="  389.746">  2  3  1 -1</clus>
<clus scale="  389.746">  2  3  1 -1</clus>
</clustering>
</event>
<event>
 6   2  0.3464723E-02  0.3946797E+03  0.7816531E-02  0.1045638E+00
       21   -1    0    0  501  502  0.00000000000E+00  0.00000000000E+00  0.29951527188E+04  0.29951527188E+04  0.00000000000E+00 0. -1.
       21   -1    0    0  504  503  0.00000000000E+00  0.00000000000E+00 -0.57999596691E+03  0.57999596691E+03  0.00000000000E+00 0.  1.
  1000006    1    1    2  501    0 -0.16091580241E+03  0.14623164971E+03  0.60462212742E+03  0.73167308807E+03  0.35000000000E+03 0.  0.
 -1000006    1    1    2    0  503  0.55345965444E+02 -0.12458312301E+03 -0.58324761432E+02  0.38011302033E+03  0.35000000000E+03 0.  0.
       21    1    1    2  504  505  0.69598850732E+02 -0.18778386747E+02 -0.29272822640E+03  0.30147378387E+03  0.00000000000E+00 0.  1.
       21    1    1    2  505  502  0.35970986239E+02 -0.28701399514E+01  0.21615876122E+04  0.21618887934E+04  0.00000000000E+00 0. -1.
<scales pt_clust_1="13000.00000" pt_clust_2="13000.00000" pt_clust_3="72.27379" pt_clust_4="36.08531"></scales>
<clustering>
<clus scale="   36.085">  1  6  2 -1</clus>
<clus scale="   72.274">  2  5  1 -1</clus>
<clus scale="  394.680">  2  4  1 -1</clus>
<clus scale="  394.680">  1  3  2 -1</clus>
</clustering>
</event>
<event>
 6   2  0.3464723E-02  0.3858561E+03  0.7816531E-02  0.1048790E+00
       21   -1    0    0  504  502  0.00000000000E+00  0.00000000000E+00  0.51996174076E+03  0.51996174076E+03  0.00000000000E+00 0.  1.
       21   -1    0    0  505  503  0.00000000000E+00  0.00000000000E+00 -0.50121515683E+03  0.50121515683E+03  0.00000000000E+00 0.  1.
  1000006    1    1    2  501    0 -0.11662315615E+03 -0.73213633752E+02 -0.11808398583E+03  0.39421443965E+03  0.35000000000E+03 0.  0.
 -1000006    1    1    2    0  502  0.20717132396E+03  0.14536657941E+02  0.19150647942E+02  0.40742854492E+03  0.35000000000E+03 0.  0.
       21    1    1    2  504  503 -0.66178734964E+02 -0.66832668072E+01  0.13246649872E+03  0.14822841934E+03  0.00000000000E+00 0. -1.
       21    1    1    2  505  501 -0.24369432849E+02  0.65360242618E+02 -0.14786576906E+02  0.71305493681E+02  0.00000000000E+00 0. -1.
<scales pt_clust_1="13000.00000" pt_clust_2="13000.00000" pt_clust_3="66.51534" pt_clust_4="71.17180"></scales>
<clustering>
<clus scale="   66.515">  1  5  2 -1</clus>
<clus scale="   71.172">  2  6  1 -1</clus>
<clus scale="  385.856">  2  3  1 -1</clus>
<clus scale="  385.856">  1  3  2 -1</clus>
</clustering>
</event>
<event>
 4   0  0.3464723E-02  0.4147239E+03  0.7816531E-02  0.1038797E+00
       21   -1    0    0  501  502  0.00000000000E+00  0.00000000000E+00  0.46184046951E+03  0.46184046951E+03  0.00000000000E+00 0. -1.
       21   -1    0    0  502  503  0.00000000000E+00  0.00000000000E+00 -0.39761649888E+03  0.39761649888E+03  0.00000000000E+00 0. -1.
  1000006    1    1    2  501    0 -0.18497606855E+03  0.12361152090E+03  0.14030069159E+03  0.43781301728E+03  0.35000000000E+03 0.  0.
 -1000006    1    1    2    0  503  0.18497606855E+03 -0.12361152090E+03 -0.76076720966E+02  0.42164395111E+03  0.35000000000E+03 0.  0.
<scales pt_clust_1="13000.00000" pt_clust_2="13000.00000"></scales>
<clustering>
<clus scale="  414.724">  1  3  2 -1</clus>
<clus scale="  414.724">  1  3  2 -1</clus>
</clustering>
</event>
<event>
 6   2  0.3464723E-02  0.4155298E+03  0.7816531E-02  0.1038531E+00
       21   -1    0    0  501  502  0.00000000000E+00  0.00000000000E+00  0.25657205944E+04  0.25657205944E+04  0.00000000000E+00 0.  1.
       21   -1    0    0  505  503  0.00000000000E+00  0.00000000000E+00 -0.22340175528E+03  0.22340175528E+03  0.00000000000E+00 0.  1.
  1000006    1    1    2  501    0  0.17534452910E+03 -0.12127756040E+03  0.20328922237E+04  0.20737899468E+04  0.35000000000E+03 0.  0.
 -1000006    1    1    2    0  503 -0.28284076787E+03  0.12701455740E+03  0.19736307813E+03  0.50752712476E+03  0.35000000000E+03 0.  0.
       21    1    1    2  504  502  0.99968169904E+02 -0.61235727101E+02  0.89207870084E+02  0.14731426731E+03  0.00000000000E+00 0.  1.
       21    1    1    2  505  504  0.75280688677E+01  0.55498730105E+02  0.22855667287E+02  0.60491010830E+02  0.00000000000E+00 0.  1.
<scales pt_clust_1="13000.00000" pt_clust_2="13000.00000" pt_clust_3="114.25937" pt_clust_4="56.00697"></scales>
<clustering>
<clus scale="   56.007">  2  6  1 -1</clus>
<clus scale="  114.259">  2  5  1 -1</clus>
<clus scale="  415.530">  1  3  2 -1</clus>
<clus scale="  415.530">  1  3  2 -1</clus>
</clustering>
</event>
<event>
 5   1  0.3464723E-02  0.5194099E+03  0.7816531E-02  0.1016704E+00
        2   -1    0    0  503    0  0.00000000000E+00  0.00000000000E+00  0.16815763672E+04  0.16815763672E+04  0.00000000000E+00 0. -1.
       21   -1    0    0  501  503  0.00000000000E+00  0.00000000000E+00 -0.64702203974E+03  0.64702203974E+03  0.00000000000E+00 0. -1.
  1000006    1    1    2  501    0  0.17333711729E+03  0.11755318064E+03 -0.34644739225E+03  0.53515446565E+03  0.35000000000E+03 0.  0.
 -1000006    1    1    2    0  502  0.21496859468E+03  0.30129588006E+02  0.69443965570E+02  0.41766224767E+03  0.35000000000E+03 0.  0.
        2    1    1    2  502    0 -0.38830571197E+03 -0.14768276865E+03  0.13115577542E+04  0.13757816937E+04  0.00000000000E+00 0. -1.
<scales pt_clust_1="13000.00000" pt_clust_2="13000.00000" pt_clust_3="383.77944"></scales>
<clustering>
<clus scale="  407.878">  2  3  1 -1</clus>
<clus scale="  383.779">  1  5  2 -1</clus>
<clus scale="  519.410">  2  3  1 -1</clus>
</clustering>
</event>
<event>
 6   2  0.3464723E-02  0.3772127E+03  0.7816531E-02  0.1051969E+00
       21   -1    0    0  505  502  0.00000000000E+00  0.00000000000E+00  0.15782288150E+04  0.15782288150E+04  0.00000000000E+00 0.  1.
       21   -1    0    0  504  503  0.00000000000E+00  0.00000000000E+00 -0.36826660424E+03  0.36826660424E+03  0.00000000000E+00 0.  1.
  1000006    1    1    2  501    0 -0.10066615356E+03 -0.97512745043E+02  0.79581396577E+03  0.88060336022E+03  0.35000000000E+03 0.  0.
 -1000006    1    1    2    0  503  0.13516492118E+03  0.28200096733E+02  0.51903872409E+03  0.64106629803E+03  0.35000000000E+03 0.  0.
       21    1    1    2  504  502  0.77325326852E+01  0.84014040712E+02 -0.25479163406E+03  0.26839695953E+03  0.00000000000E+00 0.  1.
       21    1    1    2  505  501 -0.42231300303E+02 -0.14701392402E+02  0.14990115498E+03  0.15642880147E+03  0.00000000000E+00 0.  1.
<scales pt_clust_1="13000.00000" pt_clust_2="13000.00000" pt_clust_3="84.28100" pt_clust_4="44.71704"></scales>
<clustering>
<clus scale="   44.717">  1  6  2 -1</clus>
<clus scale="   84.281">  2  5  1 -1</clus>
<clus scale="  377.213">  2  4  1 -1</clus>
<clus scale="  377.213">  1  3  2 -1</clus>
</clustering>
</event>
<event>
 4   0  0.3464723E-02  0.4774801E+03  0.7816531E-02  0.1019830E+00
       21   -1    0    0  501  502  0.00000000000E+00  0.00000000000E+00  0.11056871847E+04  0.11056871847E+04  0.00000000000E+00 0.  1.
       21   -1    0    0  502  503  0.00000000000E+00  0.00000000000E+00 -0.32152920784E+03  0.32152920784E+03  0.00000000000E+00 0.  1.
  1000006    1    1    2  501    0  0.88686392054E+02  0.31244510206E+03  0.81947316423E+03  0.94843211926E+03  0.35000000000E+03 0.  0.
 -1000006    1    1    2    0  503 -0.88686392054E+02 -0.31244510206E+03 -0.35315187326E+02  0.47878427333E+03  0.35000000000E+03 0.  0.
<scales pt_clust_1="13000.00000" pt_clust_2="13000.00000"></scales>
<clustering>
<clus scale="  477.480">  1  3  2 -1</clus>
<clus scale="  477.480">  1  3  2 -1</clus>
</clustering>
</event>
<event>
 6   2  0.3464723E-02  0.5595993E+03  0.7816531E-02  0.9992962E-01
        2   -1    0    0  502    0  0.00000000000E+00  0.00000000000E+00  0.31998343565E+03  0.31998343565E+03  0.00000000000E+00 0.  1.
       -2   -1    0    0    0  501  0.00000000000E+00  0.00000000000E+00 -0.14089932593E+04  0.14089932593E+04  0.00000000000E+00 0. -1.
  1000006    1    1    2  502    0 -0.38970069747E+03  0.80301772751E+02 -0.57257642190E+03  0.78016585880E+03  0.35000000000E+03 0.  0.
 -1000006    1    1    2    0  503  0.45039965194E+03 -0.10095329565E+03 -0.24199107393E+03  0.62778268074E+03  0.35000000000E+03 0.  0.
        3    1    1    2  503    0  0.43811911694E+01  0.44831980124E+02 -0.23875268901E+03  0.24296491061E+03  0.00000000000E+00 0. -1.
       -3    1    1    2    0  501 -0.65080145646E+02 -0.24180457230E+02 -0.35689638781E+02  0.78063244779E+02  0.00000000000E+00 0.  1.
<scales pt_clust_1="13000.00000" pt_clust_2="13000.00000" pt_clust_3="166.55475" pt_clust_4="166.55475"></scales>
<clustering>
<clus scale="  123.820">  5  6 -1 -1</clus>
<clus scale="  166.555">  2  5  1 -1</clus>
<clus scale="  973.236">  3  4 -1 -1</clus>
<clus scale="  559.599">  1  3  2 -1</clus>
</clustering>
</event>
<event>
 6   2  0.3464723E-02  0.4453456E+03  0.7816531E-02  0.1029119E+00
       21   -1    0    0  501  502  0.00000000000E+00  0.00000000000E+00  0.82106084113E+03  0.82106084113E+03  0.00000000000E+00 0.  1.
       21   -1    0    0  504  503  0.00000000000E+00  0.00000000000E+00 -0.88820163823E+03  0.88820163823E+03  0.00000000000E+00 0.  1.
  1000006    1    1    2  501    0 -0.42862017856E+02 -0.26508347442E+03  0.34938523787E+03  0.56274012246E+03  0.35000000000E+03 0.  0.
 -1000006    1    1    2    0  503  0.20868798022E+02  0.28432356782E+03  0.21725015421E+03  0.50097208251E+03  0.35000000000E+03 0.  0.
       21    1    1    2  504  505 -0.30476311202E+02 -0.79473464147E+01 -0.50574326033E+03  0.50672301233E+03  0.00000000000E+00 0.  1.
       21    1    1    2  505  502  0.52469531036E+02 -0.11292746988E+02 -0.12803292885E+03  0.13882726206E+03  0.00000000000E+00 0.  1.
<scales pt_clust_1="13000.00000" pt_clust_2="13000.00000" pt_clust_3="31.49549" pt_clust_4="44.12639"></scales>
<clustering>
<clus scale="   31.495">  2  5  1 -1</clus>
<clus scale="   44.126">  2  6  1 -1</clus>
<clus scale="  445.346">  1  3  2 -1</clus>
<clus scale="  445.346">  1  3  2 -1</clus>
</clustering>
</event>
<event>
 6   2  0.3464723E-02  0.3604183E+03  0.7816531E-02  0.1058418E+00
       21   -1    0    0  501  502  0.00000000000E+00  0.00000000000E+00  0.17300658275E+03  0.17300658275E+03  0.00000000000E+00 0.  1.
       21   -1    0    0  505  503  0.00000000000E+00  0.00000000000E+00 -0.13162970768E+04  0.13162970768E+04  0.00000000000E+00 0.  1.
  1000006    1    1    2  501    0 -0.62063209706E+02  0.21649194820E+02 -0.14392694255E+03  0.38410349442E+03  0.35000000000E+03 0.  0.
 -1000006    1    1    2    0  503  0.88183330769E+02 -0.45021985954E+02 -0.85992078821E+03  0.93368465824E+03  0.35000000000E+03 0.  0.
       21    1    1    2  504  502 -0.30187294875E+02 -0.16029297763E+02 -0.92191156776E+01  0.35400610906E+02  0.00000000000E+00 0.  1.
       21    1    1    2  505  504  0.40671738129E+01  0.39402088897E+02 -0.13022364761E+03  0.13611489598E+03  0.00000000000E+00 0.  1.
<scales pt_clust_1="13000.00000" pt_clust_2="13000.00000" pt_clust_3="34.17910" pt_clust_4="39.26414"></scales>
<clustering>
<clus scale="   34.179">  1  5  2 -1</clus>
<clus scale="   39.264">  2  6  1 -1</clus>
<clus scale="  360.418">  1  3  2 -1</clus>
<clus scale="  360.418">  1  3  2 -1</clus>
</clustering>
</event>
<event>
 5   1  0.3464723E-02  0.3582080E+03  0.7816531E-02  0.1059296E+00
       21   -1    0    0  502  503  0.00000000000E+00  0.00000000000E+00  0.10406955939E+04  0.10406955939E+04  0.00000000000E+00 0.  1.
       -3   -1    0    0    0  501  0.00000000000E+00  0.00000000000E+00 -0.36793302493E+03  0.36793302493E+03  0.00000000000E+00 0.  1.
  1000006    1    1    2  502    0 -0.10735293163E+03 -0.60077666977E+02  0.64914663630E+03  0.74767996724E+03  0.35000000000E+03 0.  0.
 -1000006    1    1    2    0  501 -0.49814861192E+02  0.35542785396E+02  0.21249960697E+03  0.41400590932E+03  0.35000000000E+03 0.  0.
       -3    1    1    2    0  503  0.15716779282E+03  0.24534881581E+02 -0.18888367433E+03  0.24694274224E+03  0.00000000000E+00 0.  1.
<scales pt_clust_1="13000.00000" pt_clust_2="13000.00000" pt_clust_3="159.07129"></scales>
<clustering>
<clus scale="  159.071">  2  5  1 -1</clus>
<clus scale="  358.208">  1  3  2 -1</clus>
<clus scale="  358.208">  1  3  2 -1</clus>
</clustering>
</event>
<event>
 6   2  0.3464723E-02  0.3600984E+03  0.7816531E-02  0.1058545E+00
       21   -1    0    0  504  503  0.00000000000E+00  0.00000000000E+00  0.18090775564E+04  0.18090775564E+04  0.00000000000E+00 0.  1.
        1   -1    0    0  501    0  0.00000000000E+00  0.00000000000E+00 -0.24872897558E+04  0.24872897558E+04  0.00000000000E+00 0. -1.
  1000006    1    1    2  501    0  0.12246849382E+03  0.10816238772E+02  0.66921948971E+02  0.37695367123E+03  0.35000000000E+03 0.  0.
 -1000006    1    1    2    0  503  0.62232682101E+01  0.13985361001E+03  0.16035171623E+03  0.40964671877E+03  0.35000000000E+03 0.  0.
       21    1    1    2  504  502 -0.18982895967E+02 -0.60028483302E+02  0.12990839819E+04  0.13006086887E+04  0.00000000000E+00 0.  1.
        1    1    1    2  502    0 -0.10970886606E+03 -0.90641365485E+02 -0.22045698465E+04  0.22091582335E+04  0.00000000000E+00 0. -1.
<scales pt_clust_1="13000.00000" pt_clust_2="13000.00000" pt_clust_3="62.95847" pt_clust_4="142.54741"></scales>
<clustering>
<clus scale="   62.958">  1  5  2 -1</clus>
<clus scale="  142.547">  2  6  1 -1</clus>
<clus scale="  360.098">  1  4  2 -1</clus>
<clus scale="  360.098">  1  3  2 -1</clus>
</clustering>
</event>
<event>
 5   1  0.3464723E-02  0.3696475E+03  0.7816531E-02  0.1054828E+00
       21   -1    0    0  504  502  0.00000000000E+00  0.00000000000E+00  0.87640548840E+03  0.87640548840E+03  0.00000000000E+00 0.  1.
       21   -1    0    0  501  503  0.00000000000E+00  0.00000000000E+00 -0.20702187317E+03  0.20702187317E+03  0.00000000000E+00 0.  1.
  1000006    1    1    2  501    0  0.11505258288E+03  0.20749748460E+02  0.11264808325E+03  0.38582021661E+03  0.35000000000E+03 0.  0.
 -1000006    1    1    2    0  502 -0.12673524520E+03  0.24196329238E+02  0.47985882904E+03  0.60779254728E+03  0.35000000000E+03 0.  0.
       21    1    1    2  504  503  0.11682662314E+02 -0.44946077698E+02  0.76876702947E+02  0.89814597673E+02  0.00000000000E+00 0.  1.
<scales pt_clust_1="13000.00000" pt_clust_2="13000.00000" pt_clust_3="46.43958"></scales>
<clustering>
<clus scale="   46.440">  1  5  2 -1</clus>
<clus scale="  369.648">  2  3  1 -1</clus>
<clus scale="  369.648">  1  3  2 -1</clus>
</clustering>
</event>
<event>
 6   2  0.3464723E-02  0.3712179E+03  0.7816531E-02  0.1054228E+00
       21   -1    0    0  505  502  0.00000000000E+00  0.00000000000E+00  0.66052013307E+03  0.66052013307E+03  0.00000000000E+00 0. -1.
       21   -1    0    0  504  503  0.00000000000E+00  0.00000000000E+00 -0.30697322315E+03  0.30697322315E+03  0.00000000000E+00 0. -1.
  1000006    1    1    2  501    0  0.59296268432E+02  0.96888150476E+02  0.14862605821E+03  0.39685396096E+03  0.35000000000E+03 0.  0.
 -1000006    1    1    2    0  502 -0.12674336957E+02 -0.13650465380E+03  0.27144063697E+03  0.46365308014E+03  0.35000000000E+03 0.  0.
       21    1    1    2  504  501 -0.14254273618E+02  0.34588879284E+02 -0.64002029707E+02  0.74133897058E+02  0.00000000000E+00 0. -1.
       21    1    1    2  505  503 -0.32367657857E+02  0.50276240375E+01 -0.25177555598E+01  0.32852418049E+02  0.00000000000E+00 0. -1.
<scales pt_clust_1="13000.00000" pt_clust_2="13000.00000" pt_clust_3="42.00097" pt_clust_4="32.75580"></scales>
<clustering>
<clus scale="   32.756">  2  6  1 -1</clus>
<clus scale="   42.001">  2  5  1 -1</clus>
<clus scale="  371.218">  2  3  1 -1</clus>
<clus scale="  371.218">  1  3  2 -1</clus>
</clustering>
</event>
<event>
 4   0  0.3464723E-02  0.3525442E+03  0.7816531E-02  0.1061576E+00
       21   -1    0    0  503  502  0.00000000000E+00  0.00000000000E+00  0.17736876365E+04  0.17736876365E+04  0.00000000000E+00 0.  1.
       21   -1    0    0  501  503  0.00000000000E+00  0.00000000000E+00 -0.80062991285E+02  0.80062991285E+02  0.00000000000E+00 0.  1.
  1000006    1    1    2  501    0  0.36787315110E+02 -0.20834682629E+02  0.51940325773E+03  0.62774766801E+03  0.35000000000E+03 0.  0.
 -1000006    1    1    2    0  502 -0.36787315110E+02  0.20834682629E+02  0.11742213875E+04  0.12260029598E+04  0.35000000000E+03 0.  0.
<scales pt_clust_1="13000.00000" pt_clust_2="13000.00000"></scales>
<clustering>
<clus scale="  352.544">  2  3  1 -1</clus>
<clus scale="  352.544">  1  3  2 -1</clus>
</clustering>
</event>
<event>
 5   1  0.3464723E-02  0.4865939E+03  0.7816531E-02  0.1017339E+00
       21   -1    0    0  501  503  0.00000000000E+00  0.00000000000E+00  0.14962912899E+04  0.14962912899E+04  0.00000000000E+00 0. -1.
        2   -1    0    0  503    0  0.00000000000E+00  0.00000000000E+00 -0.59025395527E+03  0.59025395527E+03  0.00000000000E+00 0. -1.
  1000006    1    1    2  501    0  0.10613807200E+03 -0.27901816707E+03  0.53894596950E+03  0.70857546240E+03  0.35000000000E+03 0.  0.
 -1000006    1    1    2    0  502  0.11180777107E+03  0.39937693964E+03  0.74726284873E+03  0.92352838759E+03  0.35000000000E+03 0.  0.
        2    1    1    2  502    0 -0.21794584307E+03 -0.12035877257E+03 -0.38017148364E+03  0.45444139514E+03  0.00000000000E+00 0. -1.
<scales pt_clust_1="13000.00000" pt_clust_2="13000.00000" pt_clust_3="248.97113"></scales>
<clustering>
<clus scale="  248.971">  2  5  1 -1</clus>
<clus scale="  486.594">  1  3  2 -1</clus>
<clus scale="  486.594">  1  3  2 -1</clus>
</clustering>
</event>
<event>
 4   0  0.3464723E-02  0.3833830E+03  0.7816531E-02  0.1049690E+00
       21   -1    0    0  503  502  0.00000000000E+00  0.00000000000E+00  0.36307148244E+03  0.36307148244E+03  0.00000000000E+00 0. -1.
       21   -1    0    0  501  503  0.00000000000E+00  0.00000000000E+00 -0.41792537301E+03  0.41792537301E+03  0.00000000000E+00 0. -1.
  1000006    1    1    2  501    0  0.13591332181E+03 -0.77524647601E+02 -0.96548954247E+02  0.39535326304E+03  0.35000000000E+03 0.  0.
 -1000006    1    1    2    0  502 -0.13591332181E+03  0.77524647601E+02  0.41695063673E+02  0.38564359241E+03  0.35000000000E+03 0.  0.
<scales pt_clust_1="13000.00000" pt_clust_2="13000.00000"></scales>
<clustering>
<clus scale="  383.383">  2  3  1 -1</clus>
<clus scale="  383.383">  1  3  2 -1</clus>
</clustering>
</event>
<event>
 6   2  0.3464723E-02  0.3782034E+03  0.7816531E-02  0.1051600E+00
       21   -1    0    0  501  502  0.00000000000E+00  0.00000000000E+00  0.26819040115E+03  0.26819040115E+03  0.00000000000E+00 0. -1.
       21   -1    0    0  505  503  0.00000000000E+00  0.00000000000E+00 -0.18411699303E+04  0.18411699303E+04  0.00000000000E+00 0. -1.
  1000006    1    1    2  501    0  0.79869602928E+02 -0.10186793465E+03 -0.62704564634E+02  0.37840202432E+03  0.35000000000E+03 0.  0.
 -1000006    1    1    2    0  504 -0.10206657539E+03  0.13285363715E+03 -0.28757479828E+03  0.48297716232E+03  0.35000000000E+03 0.  0.
       21    1    1    2  504  503 -0.11277712994E+03 -0.13881921981E+02 -0.52927812849E+03  0.54133790381E+03  0.00000000000E+00 0. -1.
       21    1    1    2  505  502  0.13497410241E+03 -0.17103780519E+02 -0.69342203775E+03  0.70664324101E+03  0.00000000000E+00 0. -1.
<scales pt_clust_1="13000.00000" pt_clust_2="13000.00000" pt_clust_3="113.62829" pt_clust_4="78.45618"></scales>
<clustering>
<clus scale="  113.628">  2  5  1 -1</clus>
<clus scale="   78.456">  2  6  1 -1</clus>
<clus scale="  378.203">  2  4  1 -1</clus>
<clus scale="  378.203">  1  3  2 -1</clus>
</clustering>
</event>
<event>
 6   2  0.3464723E-02  0.3994290E+03  0.7816531E-02  0.1043978E+00
       21   -1    0    0  501  502  0.00000000000E+00  0.00000000000E+00  0.24290825698E+04  0.24290825698E+04  0.00000000000E+00 0. -1.
       21   -1    0    0  504  503  0.00000000000E+00  0.00000000000E+00 -0.58126395378E+03  0.58126395378E+03  0.00000000000E+00 0. -1.
  1000006    1    1    2  501    0  0.10678454049E+03  0.18432252810E+03  0.23906438513E+03  0.47437275711E+03  0.35000000000E+03 0.  0.
 -1000006    1    1    2    0  503 -0.60374467191E+02 -0.16318150761E+03  0.22140271626E+03  0.44921313814E+03  0.35000000000E+03 0.  0.
       21    1    1    2  504  505 -0.63767784380E+02  0.18929162732E+02 -0.34626399154E+03  0.35259522879E+03  0.00000000000E+00 0. -1.
       21    1    1    2  505  502  0.17357711086E+02 -0.40070183225E+02  0.17336155062E+04  0.17341653995E+04  0.00000000000E+00 0. -1.
<scales pt_clust_1="13000.00000" pt_clust_2="13000.00000" pt_clust_3="66.39047" pt_clust_4="43.66818"></scales>
<clustering>
<clus scale="   43.668">  1  6  2 -1</clus>
<clus scale="   66.390">  2  5  1 -1</clus>
<clus scale="  399.429">  2  4  1 -1</clus>
<clus scale="  399.429">  1  3  2 -1</clus>
</clustering>
</event>
<event>
 5   1  0.3464723E-02  0.3968628E+03  0.7816531E-02  0.1044871E+00
       -2   -1    0    0    0  501  0.00000000000E+00  0.00000000000E+00  0.18570108978E+03  0.18570108978E+03  0.00000000000E+00 0.  1.
       21   -1    0    0  501  503  0.00000000000E+00  0.00000000000E+00 -0.19748969543E+04  0.19748969543E+04  0.00000000000E+00 0. -1.
  1000006    1    1    2  502    0 -0.84794062109E+02  0.25602960689E+03 -0.90813497275E+03  0.10099258989E+04  0.35000000000E+03 0.  0.
 -1000006    1    1    2    0  503 -0.95167583234E+02 -0.12942144964E+03 -0.84376932145E+03  0.92749848967E+03  0.35000000000E+03 0.  0.
       -2    1    1    2    0  502  0.17996164534E+03 -0.12660815725E+03 -0.37291570300E+02  0.22317365546E+03  0.00000000000E+00 0.  1.
<scales pt_clust_1="13000.00000" pt_clust_2="13000.00000" pt_clust_3="220.03595"></scales>
<clustering>
<clus scale="  220.036">  1  5  2 -1</clus>
<clus scale="  396.863">  1  3  2 -1</clus>
<clus scale="  396.863">  2  3  1 -1</clus>
</clustering>
</event>
<event>
 4   0  0.3464723E-02  0.3576203E+03  0.7816531E-02  0.1059530E+00
       21   -1    0    0  501  502  0.00000000000E+00  0.00000000000E+00  0.28872920145E+03  0.28872920145E+03  0.00000000000E+00 0.  1.
       21   -1    0    0  502  503  0.00000000000E+00  0.00000000000E+00 -0.56233087820E+03  0.56233087820E+03  0.00000000000E+00 0.  1.
  1000006    1    1    2  501    0 -0.46772914813E+02  0.56608790503E+02  0.59265834353E+02  0.36249786185E+03  0.35000000000E+03 0.  0.
 -1000006    1    1    2    0  503  0.46772914813E+02 -0.56608790503E+02 -0.33286751110E+03  0.48856221781E+03  0.35000000000E+03 0.  0.
<scales pt_clust_1="13000.00000" pt_clust_2="13000.00000"></scales>
<clustering>
<clus scale="  357.620">  1  3  2 -1</clus>
<clus scale="  357.620">  1  3  2 -1</clus>
</clustering>
</event>
<event>
 6   2  0.3464723E-02  0.4646393E+03  0.7816531E-02  0.1023444E+00
       21   -1    0    0  501  503  0.00000000000E+00  0.00000000000E+00  0.35833545469E+03  0.35833545469E+03  0.00000000000E+00 0. -1.
        2   -1    0    0  504    0  0.00000000000E+00  0.00000000000E+00 -0.21544240887E+04  0.21544240887E+04  0.00000000000E+00 0. -1.
  1000006    1    1    2  501    0  0.10596434803E+03  0.20706770241E+03 -0.11267093308E+03  0.43508644612E+03  0.35000000000E+03 0.  0.
 -1000006    1    1    2    0  502  0.20612976735E+02 -0.36535598768E+03 -0.51662319746E+03  0.72340128608E+03  0.35000000000E+03 0.  0.
       21    1    1    2  504  503 -0.46148977293E+02  0.15302772204E+03  0.23235856769E+02  0.16151506697E+03  0.00000000000E+00 0. -1.
        2    1    1    2  502    0 -0.80428347475E+02  0.52605632382E+01 -0.11900303602E+04  0.11927567442E+04  0.00000000000E+00 0. -1.
<scales pt_clust_1="13000.00000" pt_clust_2="13000.00000" pt_clust_3="161.95443" pt_clust_4="80.60020"></scales>
<clustering>
<clus scale="   80.600">  2  6  1 -1</clus>
<clus scale="  161.954">  1  5  2 -1</clus>
<clus scale="  464.639">  1  3  2 -1</clus>
<clus scale="  464.639">  1  3  2 -1</clus>
</clustering>
</event>
<event>
 5   1  0.3464723E-02  0.4242148E+03  0.7816531E-02  0.1035703E+00
       21   -1    0    0  502  503  0.00000000000E+00  0.00000000000E+00  0.19528628308E+04  0.19528628308E+04  0.00000000000E+00 0.  1.
        2   -1    0    0  501    0  0.00000000000E+00  0.00000000000E+00 -0.13205442393E+04  0.13205442393E+04  0.00000000000E+00 0.  1.
  1000006    1    1    2  501    0 -0.14710391208E+03 -0.70759560597E+02  0.25501680118E+03  0.46279590021E+03  0.35000000000E+03 0.  0.
 -1000006    1    1    2    0  503  0.25129603245E+03  0.75235455284E+02  0.15616163318E+04  0.16217137963E+04  0.35000000000E+03 0.  0.
        2    1    1    2  502    0 -0.10419212036E+03 -0.44758946871E+01 -0.11843145415E+04  0.11888973735E+04  0.00000000000E+00 0.  1.
<scales pt_clust_1="13000.00000" pt_clust_2="13000.00000" pt_clust_3="104.28821"></scales>
<clustering>
<clus scale="  104.288">  2  5  1 -1</clus>
<clus scale="  424.215">  2  3  1 -1</clus>
<clus scale="  424.215">  1  3  2 -1</clus>
</clustering>
</event>
<event>
 5   1  0.3464723E-02  0.6213831E+03  0.7816531E-02  0.9862010E-01
       21   -1    0    0  501  502  0.00000000000E+00  0.00000000000E+00  0.15363475457E+04  0.15363475457E+04  0.00000000000E+00 0. -1.
       21   -1    0    0  504  503  0.00000000000E+00  0.00000000000E+00 -0.31289691003E+03  0.31289691003E+03  0.00000000000E+00 0.  1.
  1000006    1    1    2  501    0 -0.26611916764E+03  0.46450543462E+03  0.92618925622E+03  0.11255715208E+04  0.35000000000E+03 0.  0.
 -1000006    1    1    2    0  503  0.24710850973E+03 -0.43907243662E+03  0.24108325835E+03  0.65914213766E+03  0.35000000000E+03 0.  0.
       21    1    1    2  504  502  0.19010657904E+02 -0.25432998004E+02  0.56178121101E+02  0.64530797236E+02  0.00000000000E+00 0. -1.
<scales pt_clust_1="13000.00000" pt_clust_2="13000.00000" pt_clust_3="31.75283"></scales>
<clustering>
<clus scale="   31.753">  1  5  2 -1</clus>
<clus scale="  621.383">  1  3  2 -1</clus>
<clus scale="  621.383">  1  3  2 -1</clus>
</clustering>
</event>
<event>
 4   0  0.3464723E-02  0.3581044E+03  0.7816531E-02  0.1059337E+00
       21   -1    0    0  503  502  0.00000000000E+00  0.00000000000E+00  0.11271959664E+04  0.11271959664E+04  0.00000000000E+00 0. -1.
       21   -1    0    0  501  503  0.00000000000E+00  0.00000000000E+00 -0.12426224595E+03  0.12426224595E+03  0.00000000000E+00 0. -1.
  1000006    1    1    2  501    0 -0.73097885188E+02 -0.19886636781E+02  0.31962522707E+03  0.47999902596E+03  0.35000000000E+03 0.  0.
 -1000006    1    1    2    0  502  0.73097885188E+02  0.19886636781E+02  0.68330849335E+03  0.77145918636E+03  0.35000000000E+03 0.  0.
<scales pt_clust_1="13000.00000" pt_clust_2="13000.00000"></scales>
<clustering>
<clus scale="  358.104">  2  3  1 -1</clus>
<clus scale="  358.104">  1  3  2 -1</clus>
</clustering>
</event>
<event>
 4   0  0.3464723E-02  0.3974219E+03  0.7816531E-02  0.1044676E+00
        2   -1    0    0  502    0  0.00000000000E+00  0.00000000000E+00  0.15672843500E+04  0.15672843500E+04  0.00000000000E+00 0. -1.
       -2   -1    0    0    0  501  0.00000000000E+00  0.00000000000E+00 -0.11377035052E+03  0.11377035052E+03  0.00000000000E+00 0.  1.
  1000006    1    1    2  502    0 -0.10967671994E+03  0.15302024021E+03  0.44269076769E+03  0.59491116363E+03  0.35000000000E+03 0.  0.
 -1000006    1    1    2    0  501  0.10967671994E+03 -0.15302024021E+03  0.10108232318E+04  0.10861435369E+04  0.35000000000E+03 0.  0.
<scales pt_clust_1="13000.00000" pt_clust_2="13000.00000"></scales>
<clustering>
<clus scale="  587.998">  3  4 -1 -1</clus>
<clus scale="  397.422">  1  3  2 -1</clus>
</clustering>
</event>
<event>
 5   1  0.3464723E-02  0.4107669E+03  0.7816531E-02  0.1040114E+00
       21   -1    0    0  503  502  0.00000000000E+00  0.00000000000E+00  0.11534144478E+04  0.11534144478E+04  0.00000000000E+00 0.  1.
       21   -1    0    0  501  503  0.00000000000E+00  0.00000000000E+00 -0.17815169337E+03  0.17815169337E+03  0.00000000000E+00 0.  1.
  1000006    1    1    2  501    0 -0.13765450826E+03 -0.17906961810E+03  0.29095891284E+03  0.50810607232E+03  0.35000000000E+03 0.  0.
 -1000006    1    1    2    0  504  0.13710456348E+03  0.14477091601E+03  0.53173237149E+03  0.66707990102E+03  0.35000000000E+03 0.  0.
       21    1    1    2  504  502  0.54994478247E+00  0.34298702090E+02  0.15257147014E+03  0.15638016788E+03  0.00000000000E+00 0. -1.
<scales pt_clust_1="13000.00000" pt_clust_2="13000.00000" pt_clust_3="34.30311"></scales>
<clustering>
<clus scale="   34.303">  1  5  2 -1</clus>
<clus scale="  410.767">  1  4  2 -1</clus>
<clus scale="  410.767">  1  3  2 -1</clus>
</clustering>
</event>
<event>
 5   1  0.3464723E-02  0.4290606E+03  0.7816531E-02  0.1034157E+00
       21   -1    0    0  503  502  0.00000000000E+00  0.00000000000E+00  0.66123052549E+03  0.66123052549E+03  0.00000000000E+00 0.  1.
       21   -1    0    0  504  503  0.00000000000E+00  0.00000000000E+00 -0.32915053841E+03  0.32915053841E+03  0.00000000000E+00 0.  1.
  1000006    1    1    2  501    0  0.18689776329E+03 -0.11242591849E+03  0.11345582902E+03  0.42771788156E+03  0.35000000000E+03 0.  0.
 -1000006    1    1    2    0  502 -0.21881889998E+03  0.16650125675E+03  0.22644945654E+03  0.49938335560E+03  0.35000000000E+03 0.  0.
       21    1    1    2  504  501  0.31921136687E+02 -0.54075338264E+02 -0.78252984707E+01  0.63279826737E+02  0.00000000000E+00 0.  1.
<scales pt_clust_1="13000.00000" pt_clust_2="13000.00000" pt_clust_3="62.79412"></scales>
<clustering>
<clus scale="   62.794">  2  5  1 -1</clus>
<clus scale="  429.061">  2  3  1 -1</clus>
<clus scale="  429.061">  1  3  2 -1</clus>
</clustering>
</event>
<event>
 6   2  0.3464723E-02  0.3901004E+03  0.7816531E-02  0.1047262E+00
       21   -1    0    0  504  502  0.00000000000E+00  0.00000000000E+00  0.20188326770E+04  0.20188326770E+04  0.00000000000E+00 0.  1.
       21   -1    0    0  502  503  0.00000000000E+00  0.00000000000E+00 -0.85790955938E+03  0.85790955938E+03  0.00000000000E+00 0.  1.
  1000006    1    1    2  501    0 -0.15389986272E+03  0.21126032662E+02  0.11247166177E+04  0.11881157128E+04  0.35000000000E+03 0.  0.
 -1000006    1    1    2    0  505  0.22871578517E+03 -0.18044340236E+03  0.10661324468E+03  0.46769339934E+03  0.35000000000E+03 0.  0.
       21    1    1    2  504  501  0.32062554469E+02  0.71252856053E+02  0.56511841776E+03  0.57049434965E+03  0.00000000000E+00 0. -1.
       21    1    1    2  505  503 -0.10687847692E+03  0.88064513645E+02 -0.63552516246E+03  0.65043877461E+03  0.00000000000E+00 0.  1.
<scales pt_clust_1="13000.00000" pt_clust_2="13000.00000" pt_clust_3="78.13435" pt_clust_4="138.59221"></scales>
<clustering>
<clus scale="   78.134">  1  5  2 -1</clus>
<clus scale="  138.592">  2  6  1 -1</clus>
<clus scale="  390.100">  1  3  2 -1</clus>
<clus scale="  390.100">  1  3  2 -1</clus>
</clustering>
</event>
<event>
 4   0  0.3464723E-02  0.3773458E+03  0.7816531E-02  0.1051919E+00
       -1   -1    0    0    0  501  0.00000000000E+00  0.00000000000E+00  0.14536445249E+03  0.14536445249E+03  0.00000000000E+00 0. -1.
        1   -1    0    0  502    0  0.00000000000E+00  0.00000000000E+00 -0.10566037141E+04  0.10566037141E+04  0.00000000000E+00 0.  1.
  1000006    1    1    2  502    0  0.11900404098E+03  0.75683023838E+02 -0.29331164242E+03  0.47793472509E+03  0.35000000000E+03 0.  0.
 -1000006    1    1    2    0  501 -0.11900404098E+03 -0.75683023838E+02 -0.61792761922E+03  0.72403344154E+03  0.35000000000E+03 0.  0.
<scales pt_clust_1="13000.00000" pt_clust_2="13000.00000"></scales>
<clustering>
<clus scale="  496.861">  3  4 -1 -1</clus>
<clus scale="  377.346">  2  3  1 -1</clus>
</clustering>
</event>
<event>
 5   1  0.3464723E-02  0.3539015E+03  0.7816531E-02  0.1061025E+00
       21   -1    0    0  501  502  0.00000000000E+00  0.00000000000E+00  0.15091541288E+04  0.15091541288E+04  0.00000000000E+00 0. -1.
       21   -1    0    0  502  503  0.00000000000E+00  0.00000000000E+00 -0.29771601918E+03  0.29771601918E+03  0.00000000000E+00 0. -1.
  1000006    1    1    2  501    0  0.55307759899E+02 -0.16504230039E+02  0.79548121891E+03  0.87098892504E+03  0.35000000000E+03 0.  0.
 -1000006    1    1    2    0  504  0.20963151059E+03  0.90973543215E+02  0.49660107376E+03  0.64910259764E+03  0.35000000000E+03 0.  0.
       21    1    1    2  504  503 -0.26493927049E+03 -0.74469313176E+02 -0.80644183067E+02  0.28677862528E+03  0.00000000000E+00 0. -1.
<scales pt_clust_1="13000.00000" pt_clust_2="13000.00000" pt_clust_3="275.20628"></scales>
<clustering>
<clus scale="  275.206">  2  5  1 -1</clus>
<clus scale="  353.902">  1  3  2 -1</clus>
<clus scale="  353.902">  1  3  2 -1</clus>
</clustering>
</event>
<event>
 4   0  0.3464723E-02  0.3588921E+03  0.7816531E-02  0.1059023E+00
       21   -1    0    0  503  502  0.00000000000E+00  0.00000000000E+00  0.10491034759E+03  0.10491034759E+03  0.00000000000E+00 0. -1.
       21   -1    0    0  501  503  0.00000000000E+00  0.00000000000E+00 -0.12295728935E+04  0.12295728935E+04  0.00000000000E+00 0. -1.
  1000006    1    1    2  501    0 -0.23786809720E+01  0.79359329989E+02 -0.58803052237E+03  0.68890017899E+03  0.35000000000E+03 0.  0.
 -1000006    1    1    2    0  502  0.23786809720E+01 -0.79359329989E+02 -0.53663202359E+03  0.64558306214E+03  0.35000000000E+03 0.  0.
<scales pt_clust_1="13000.00000" pt_clust_2="13000.00000"></scales>
<clustering>
<clus scale="  358.892">  2  3  1 -1</clus>
<clus scale="  358.892">  1  3  2 -1</clus>
</clustering>
</event>
<event>
 4   0  0.3464723E-02  0.3706892E+03  0.7816531E-02  0.1054430E+00
       21   -1    0    0  501  502  0.00000000000E+00  0.00000000000E+00  0.30445125750E+03  0.30445125750E+03  0.00000000000E+00 0.  1.
       21   -1    0    0  502  503  0.00000000000E+00  0.00000000000E+00 -0.45145811090E+03  0.45145811090E+03  0.00000000000E+00 0.  1.
  1000006    1    1    2  501    0  0.55997755176E+02  0.10851142966E+03 -0.67343412189E+02  0.37675670414E+03  0.35000000000E+03 0.  0.
 -1000006    1    1    2    0  503 -0.55997755176E+02 -0.10851142966E+03 -0.79663441205E+02  0.37915266426E+03  0.35000000000E+03 0.  0.
<scales pt_clust_1="13000.00000" pt_clust_2="13000.00000"></scales>
<clustering>
<clus scale="  370.689">  1  3  2 -1</clus>
<clus scale="  370.689">  1  3  2 -1</clus>
</clustering>
</event>
<event>
 5   1  0.3464723E-02  0.5898407E+03  0.7816531E-02  0.9926710E-01
        2   -1    0    0  503    0  0.00000000000E+00  0.00000000000E+00  0.95446886048E+03  0.95446886048E+03  0.00000000000E+00 0. -1.
       -2   -1    0    0    0  501  0.00000000000E+00  0.00000000000E+00 -0.47242983388E+03  0.47242983388E+03  0.00000000000E+00 0.  1.
  1000006    1    1    2  502    0  0.14370951911E+03 -0.50253163032E+03  0.16676854447E+03  0.65077047626E+03  0.35000000000E+03 0.  0.
 -1000006    1    1    2    0  501 -0.10089048908E+03  0.42165382400E+03  0.13402719924E+03  0.57309172758E+03  0.35000000000E+03 0.  0.
       21    1    1    2  503  502 -0.42819030033E+02  0.80877806315E+02  0.18124328289E+03  0.20303649052E+03  0.00000000000E+00 0.  1.
<scales pt_clust_1="13000.00000" pt_clust_2="13000.00000" pt_clust_3="91.51333"></scales>
<clustering>
<clus scale="   91.513">  1  5  2 -1</clus>
<clus scale=" 1015.621">  3  4 -1 -1</clus>
<clus scale="  589.841">  1  3  2 -1</clus>
</clustering>
</event>
<event>
 6   2  0.3464723E-02  0.4473159E+03  0.7816531E-02  0.1028526E+00
        2   -1    0    0  504    0  0.00000000000E+00  0.00000000000E+00  0.20808839638E+04  0.20808839638E+04  0.00000000000E+00 0.  1.
       21   -1    0    0  502  503  0.00000000000E+00  0.00000000000E+00 -0.34048553698E+03  0.34048553698E+03  0.00000000000E+00 0.  1.
  1000006    1    1    2  501    0 -0.12536533988E+02 -0.20847345161E+03  0.62122418017E+03  0.74299248094E+03  0.35000000000E+03 0.  0.
 -1000006    1    1    2    0  503  0.32872258861E+03  0.10251368976E+03 -0.99354079004E+01  0.49108686521E+03  0.35000000000E+03 0.  0.
       21    1    1    2  504  501 -0.28703459095E+02 -0.32256342672E+02  0.82017423772E+02  0.92688823537E+02  0.00000000000E+00 0. -1.
        2    1    1    2  502    0 -0.28748259552E+03  0.13821610452E+03  0.10470922308E+04  0.10946013311E+04  0.00000000000E+00 0.  1.
<scales pt_clust_1="13000.00000" pt_clust_2="13000.00000" pt_clust_3="43.17824" pt_clust_4="326.13373"></scales>
<clustering>
<clus scale="   43.178">  1  5  2 -1</clus>
<clus scale="  326.134">  1  6  2 -1</clus>
<clus scale="  447.316">  1  3  2 -1</clus>
<clus scale="  447.316">  2  3  1 -1</clus>
</clustering>
</event>
<event>
 6   2  0.3464723E-02  0.4893751E+03  0.7816531E-02  0.1016590E+00
       21   -1    0    0  504  502  0.00000000000E+00  0.00000000000E+00  0.16521937347E+04  0.16521937347E+04  0.00000000000E+00 0. -1.
       21   -1    0    0  505  503  0.00000000000E+00  0.00000000000E+00 -0.18598732450E+03  0.18598732450E+03  0.00000000000E+00 0. -1.
  1000006    1    1    2  501    0  0.34604908965E+03 -0.83846792465E+02  0.60068100893E+03  0.78108765932E+03  0.35000000000E+03 0.  0.
 -1000006    1    1    2    0  502 -0.32916326221E+03  0.43019241872E+02  0.75567805683E+03  0.89652018043E+03  0.35000000000E+03 0.  0.
       21    1    1    2  504  503 -0.62095078240E+02  0.20042466095E+02  0.47008499928E+02  0.80419514138E+02  0.00000000000E+00 0.  1.
       21    1    1    2  505  501  0.45209250792E+02  0.20785084498E+02  0.62838844566E+02  0.80153705348E+02  0.00000000000E+00 0. -1.
<scales pt_clust_1="13000.00000" pt_clust_2="13000.00000" pt_clust_3="61.87923" pt_clust_4="49.75838"></scales>
<clustering>
<clus scale="   49.758">  2  6  1 -1</clus>
<clus scale="   61.879">  2  5  1 -1</clus>
<clus scale="  489.375">  2  3  1 -1</clus>
<clus scale="  489.375">  1  3  2 -1</clus>
</clustering>
</event>
<event>
 6   2  0.3464723E-02  0.4028748E+03  0.7816531E-02  0.1042789E+00
        1   -1    0    0  504    0  0.00000000000E+00  0.00000000000E+00  0.10109646138E+04  0.10109646138E+04  0.00000000000E+00 0.  1.
       21   -1    0    0  502  503  0.00000000000E+00  0.00000000000E+00 -0.99527669556E+03  0.99527669556E+03  0.00000000000E+00 0.  1.
  1000006    1    1    2  501    0  0.17760374306E+03  0.37565609899E+02 -0.15573613317E+03  0.42391981290E+03  0.35000000000E+03 0.  0.
 -1000006    1    1    2    0  503  0.10301016683E+03 -0.30421154689E+03 -0.56259173155E+03  0.73631869197E+03  0.35000000000E+03 0.  0.
       21    1    1    2  504  501 -0.28050443661E+02 -0.22501577116E+02  0.78285110514E+02  0.86149329019E+02  0.00000000000E+00 0.  1.
        1    1    1    2  502    0 -0.25256346623E+03  0.28914751411E+03  0.65573067245E+03  0.75985347547E+03  0.00000000000E+00 0.  1.
<scales pt_clust_1="13000.00000" pt_clust_2="13000.00000" pt_clust_3="35.96037" pt_clust_4="386.04013"></scales>
<clustering>
<clus scale="   35.960">  1  5  2 -1</clus>
<clus scale="  386.040">  1  6  2 -1</clus>
<clus scale="  402.875">  1  3  2 -1</clus>
<clus scale="  402.875">  2  3  1 -1</clus>
</clustering>
</event>
<event>
 5   1  0.3464723E-02  0.4442769E+03  0.7816531E-02  0.1029443E+00
       21   -1    0    0  501  502  0.00000000000E+00  0.00000000000E+00  0.64762518161E+03  0.64762518161E+03  0.00000000000E+00 0.  1.
       21   -1    0    0  504  503  0.00000000000E+00  0.00000000000E+00 -0.69317297011E+03  0.69317297011E+03  0.00000000000E+00 0.  1.
  1000006    1    1    2  501    0  0.25123436822E+03  0.81010125148E+02  0.40351262857E+03  0.59582194451E+03  0.35000000000E+03 0.  0.
 -1000006    1    1    2    0  503 -0.24628909749E+03 -0.12397292290E+03 -0.50552248709E+03  0.67385502158E+03  0.35000000000E+03 0.  0.
       21    1    1    2  504  502 -0.49452707317E+01  0.42962797754E+02  0.56462070021E+02  0.71121185623E+02  0.00000000000E+00 0.  1.
<scales pt_clust_1="13000.00000" pt_clust_2="13000.00000" pt_clust_3="43.24648"></scales>
<clustering>
<clus scale="   43.246">  1  5  2 -1</clus>
<clus scale="  444.277">  1  3  2 -1</clus>
<clus scale="  444.277">  1  3  2 -1</clus>
</clustering>
</event>
<event>
 5   1  0.3464723E-02  0.3736747E+03  0.7816531E-02  0.1053297E+00
       21   -1    0    0  501  502  0.00000000000E+00  0.00000000000E+00  0.10995449629E+04  0.10995449629E+04  0.00000000000E+00 0.  1.
       21   -1    0    0  502  503  0.00000000000E+00  0.00000000000E+00 -0.27075686970E+03  0.27075686970E+03  0.00000000000E+00 0.  1.
  1000006    1    1    2  501    0  0.17753263671E+02  0.14311594489E+03  0.67131433782E+03  0.77068819390E+03  0.35000000000E+03 0.  0.
 -1000006    1    1    2    0  504  0.53166266909E+02 -0.10738710863E+03  0.27275825637E+03  0.45962561880E+03  0.35000000000E+03 0.  0.
       21    1    1    2  504  503 -0.70919530580E+02 -0.35728836260E+02 -0.11528450097E+03  0.13998801992E+03  0.00000000000E+00 0.  1.
<scales pt_clust_1="13000.00000" pt_clust_2="13000.00000" pt_clust_3="79.41114"></scales>
<clustering>
<clus scale="   79.411">  2  5  1 -1</clus>
<clus scale="  373.675">  1  3  2 -1</clus>
<clus scale="  373.675">  1  3  2 -1</clus>
</clustering>
</event>
<event>
 4   0  0.3464723E-02  0.7495370E+03  0.7816531E-02  0.9636077E-01
       -2   -1    0    0    0  501  0.00000000000E+00  0.00000000000E+00  0.76045990909E+03  0.76045990909E+03  0.00000000000E+00 0. -1.
        2   -1    0    0  502    0  0.00000000000E+00  0.00000000000E+00 -0.92457221651E+03  0.92457221651E+03  0.00000000000E+00 0.  1.
  1000006    1    1    2  502    0 -0.49336407385E+03 -0.44260329266E+03 -0.45974308696E+03  0.87930056866E+03  0.35000000000E+03 0.  0.
 -1000006    1    1    2    0  501  0.49336407385E+03  0.44260329266E+03  0.29563077954E+03  0.80573155694E+03  0.35000000000E+03 0.  0.
<scales pt_clust_1="13000.00000" pt_clust_2="13000.00000"></scales>
<clustering>
<clus scale=" 1563.618">  3  4 -1 -1</clus>
<clus scale="  749.537">  2  3  1 -1</clus>
</clustering>
</event>
<event>
 5   1  0.3464723E-02  0.4954028E+03  0.7816531E-02  0.1014986E+00
        2   -1    0    0  501    0  0.00000000000E+00  0.00000000000E+00  0.59093653318E+03  0.59093653318E+03  0.00000000000E+00 0.  1.
       21   -1    0    0  502  503  0.00000000000E+00  0.00000000000E+00 -0.70034842486E+03  0.70034842486E+03  0.00000000000E+00 0. -1.
  1000006    1    1    2  501    0  0.37679109913E+02 -0.32782955721E+03  0.29913720351E+02  0.48196137249E+03  0.35000000000E+03 0.  0.
 -1000006    1    1    2    0  503 -0.14197587403E+03  0.33807404370E+03 -0.32071167052E+03  0.59983929801E+03  0.35000000000E+03 0.  0.
        2    1    1    2  502    0  0.10429676412E+03 -0.10244486489E+02  0.18138605849E+03  0.20948428754E+03  0.00000000000E+00 0.  1.
<scales pt_clust_1="13000.00000" pt_clust_2="13000.00000" pt_clust_3="104.79869"></scales>
<clustering>
<clus scale="  104.799">  1  5  2 -1</clus>
<clus scale="  495.403">  2  4  1 -1</clus>
<clus scale="  495.403">  2  3  1 -1</clus>
</clustering>
</event>
<event>
 6   2  0.3464723E-02  0.4477825E+03  0.7816531E-02  0.1028385E+00
       21   -1    0    0  501  503  0.00000000000E+00  0.00000000000E+00  0.61177074661E+03  0.61177074661E+03  0.00000000000E+00 0. -1.
        1   -1    0    0  504    0  0.00000000000E+00  0.00000000000E+00 -0.12034023287E+04  0.12034023287E+04  0.00000000000E+00 0.  1.
  1000006    1    1    2  501    0  0.28580572559E+03 -0.30791668742E+02  0.15006209578E+03  0.47712856992E+03  0.35000000000E+03 0.  0.
 -1000006    1    1    2    0  502 -0.26925833438E+03 -0.29521544514E+02 -0.16460741495E+02  0.44287981241E+03  0.35000000000E+03 0.  0.
       21    1    1    2  504  503  0.23960853046E+01  0.30588085659E+02  0.81798730904E+02  0.87363634234E+02  0.00000000000E+00 0.  1.
        1    1    1    2  502    0 -0.18943476511E+02  0.29725127597E+02 -0.80703166733E+03  0.80780105879E+03  0.00000000000E+00 0.  1.
<scales pt_clust_1="13000.00000" pt_clust_2="13000.00000" pt_clust_3="30.68179" pt_clust_4="35.26613"></scales>
<clustering>
<clus scale="   30.682">  1  5  2 -1</clus>
<clus scale="   35.266">  2  6  1 -1</clus>
<clus scale="  447.782">  2  4  1 -1</clus>
<clus scale="  447.782">  1  3  2 -1</clus>
</clustering>
</event>
<event>
 6   2  0.3464723E-02  0.3765651E+03  0.7816531E-02  0.1052211E+00
       21   -1    0    0  501  502  0.00000000000E+00  0.00000000000E+00  0.68953694899E+03  0.68953694899E+03  0.00000000000E+00 0. -1.
       21   -1    0    0  505  503  0.00000000000E+00  0.00000000000E+00 -0.99832034707E+03  0.99832034707E+03  0.00000000000E+00 0. -1.
  1000006    1    1    2  501    0  0.67161945164E+01  0.16899225947E+03  0.11945909942E+03  0.40666198183E+03  0.35000000000E+03 0.  0.
 -1000006    1    1    2    0  504  0.12118161834E+03 -0.87051813593E+02  0.11228076654E+03  0.39669884473E+03  0.35000000000E+03 0.  0.
       21    1    1    2  504  503 -0.11844131943E+03 -0.13509299901E+02 -0.70032693064E+03  0.71040034988E+03  0.00000000000E+00 0. -1.
       21    1    1    2  505  502 -0.94564934243E+01 -0.68431145977E+02  0.15980366660E+03  0.17409611962E+03  0.00000000000E+00 0. -1.
<scales pt_clust_1="13000.00000" pt_clust_2="13000.00000" pt_clust_3="119.37630" pt_clust_4="69.08145"></scales>
<clustering>
<clus scale="   69.081">  1  6  2 -1</clus>
<clus scale="  119.376">  2  5  1 -1</clus>
<clus scale="  376.565">  2  4  1 -1</clus>
<clus scale="  376.565">  1  3  2 -1</clus>
</clustering>
</event>
<event>
 4   0  0.3464723E-02  0.5085916E+03  0.7816531E-02  0.1011560E+00
       21   -1    0    0  501  502  0.00000000000E+00  0.00000000000E+00  0.20903470443E+03  0.20903470443E+03  0.00000000000E+00 0. -1.
       21   -1    0    0  502  503  0.00000000000E+00  0.00000000000E+00 -0.12375548114E+04  0.12375548114E+04  0.00000000000E+00 0.  1.
  1000006    1    1    2  501    0 -0.36800995787E+03 -0.27093189312E+02 -0.50693472562E+03  0.71808647532E+03  0.35000000000E+03 0.  0.
 -1000006    1    1    2    0  503  0.36800995787E+03  0.27093189312E+02 -0.52158538137E+03  0.72850304053E+03  0.35000000000E+03 0.  0.
<scales pt_clust_1="13000.00000" pt_clust_2="13000.00000"></scales>
<clustering>
<clus scale="  508.592">  2  4  1 -1</clus>
<clus scale="  508.592">  1  3  2 -1</clus>
</clustering>
</event>
<event>
 5   1  0.3464723E-02  0.3640179E+03  0.7816531E-02  0.1057004E+00
       21   -1    0    0  504  502  0.00000000000E+00  0.00000000000E+00  0.40879497917E+03  0.40879497917E+03  0.00000000000E+00 0. -1.
       21   -1    0    0  501  503  0.00000000000E+00  0.00000000000E+00 -0.44728408870E+03  0.44728408870E+03  0.00000000000E+00 0. -1.
  1000006    1    1    2  501    0  0.92233130771E+02 -0.31256725405E+02 -0.18295187953E+03  0.40676199862E+03  0.35000000000E+03 0.  0.
 -1000006    1    1    2    0  502 -0.11409177660E+03 -0.21090328675E+02  0.12574520745E+03  0.38958130429E+03  0.35000000000E+03 0.  0.
       21    1    1    2  504  503  0.21858645830E+02  0.52347054080E+02  0.18717562547E+02  0.59735764966E+02  0.00000000000E+00 0. -1.
<scales pt_clust_1="13000.00000" pt_clust_2="13000.00000" pt_clust_3="56.72755"></scales>
<clustering>
<clus scale="   56.728">  1  5  2 -1</clus>
<clus scale="  364.018">  2  3  1 -1</clus>
<clus scale="  364.018">  1  3  2 -1</clus>
</clustering>
</event>
<event>
 5   1  0.3464723E-02  0.5283643E+03  0.7816531E-02  0.1006630E+00
       21   -1    0    0  504  502  0.00000000000E+00  0.00000000000E+00  0.86189652239E+03  0.86189652239E+03  0.00000000000E+00 0.  1.
       21   -1    0    0  501  503  0.00000000000E+00  0.00000000000E+00 -0.57838036474E+03  0.57838036474E+03  0.00000000000E+00 0. -1.
  1000006    1    1    2  501    0 -0.27311289002E+03  0.30572050916E+03  0.16336510295E+03  0.56324402995E+03  0.35000000000E+03 0.  0.
 -1000006    1    1    2    0  502  0.24088322281E+03 -0.30214563083E+03  0.36091505387E+03  0.63409493404E+03  0.35000000000E+03 0.  0.
       21    1    1    2  504  503  0.32229667212E+02 -0.35748783242E+01 -0.24076399918E+03  0.24293792315E+03  0.00000000000E+00 0.  1.
<scales pt_clust_1="13000.00000" pt_clust_2="13000.00000" pt_clust_3="32.42732"></scales>
<clustering>
<clus scale="   32.427">  2  5  1 -1</clus>
<clus scale="  528.364">  1  4  2 -1</clus>
<clus scale="  528.364">  1  3  2 -1</clus>
</clustering>
</event>
<event>
 5   1  0.3464723E-02  0.5956793E+03  0.7816531E-02  0.1000855E+00
       21   -1    0    0  504  502  0.00000000000E+00  0.00000000000E+00  0.81668924376E+03  0.81668924376E+03  0.00000000000E+00 0. -1.
       21   -1    0    0  501  503  0.00000000000E+00  0.00000000000E+00 -0.94154073151E+03  0.94154073151E+03  0.00000000000E+00 0.  1.
  1000006    1    1    2  501    0  0.38657935080E+03  0.15516320233E+03 -0.32103635247E+03  0.63173060194E+03  0.35000000000E+03 0.  0.
 -1000006    1    1    2    0  502  0.85313137593E+02  0.25559707392E+03  0.23375095166E+03  0.49974763936E+03  0.35000000000E+03 0.  0.
       21    1    1    2  504  503 -0.47189248839E+03 -0.41076027625E+03 -0.37566086932E+02  0.62675173397E+03  0.00000000000E+00 0.  1.
<scales pt_clust_1="13000.00000" pt_clust_2="13000.00000" pt_clust_3="482.01024"></scales>
<clustering>
<clus scale="  441.711">  1  4  2 -1</clus>
<clus scale="  482.010">  1  5  2 -1</clus>
<clus scale="  595.679">  1  3  2 -1</clus>
</clustering>
</event>
<event>
 6   2  0.3464723E-02  0.3505378E+03  0.7816531E-02  0.1062395E+00
       21   -1    0    0  501  502  0.00000000000E+00  0.00000000000E+00  0.33529361793E+03  0.33529361793E+03  0.00000000000E+00 0. -1.
       21   -1    0    0  505  503  0.00000000000E+00  0.00000000000E+00 -0.14109825447E+04  0.14109825447E+04  0.00000000000E+00 0. -1.
  1000006    1    1    2  501    0  0.51110160480E+02 -0.14390641387E+03 -0.38284132152E+03  0.54072986039E+03  0.35000000000E+03 0.  0.
 -1000006    1    1    2    0  504  0.56882328868E+02 -0.95326022340E+02 -0.71273142093E+03  0.80175353336E+03  0.35000000000E+03 0.  0.
       21    1    1    2  504  503  0.82430235887E+01  0.33144998026E+02 -0.12282163414E+03  0.12748212480E+03  0.00000000000E+00 0. -1.
       21    1    1    2  505  502 -0.11623551294E+03  0.20608743819E+03  0.14270544979E+03  0.27631064411E+03  0.00000000000E+00 0. -1.
<scales pt_clust_1="13000.00000" pt_clust_2="13000.00000" pt_clust_3="34.15462" pt_clust_4="237.89930"></scales>
<clustering>
<clus scale="   34.155">  2  5  1 -1</clus>
<clus scale="  237.899">  1  6  2 -1</clus>
<clus scale="  350.538">  1  3  2 -1</clus>
<clus scale="  350.538">  1  3  2 -1</clus>
</clustering>
</event>
<event>
 4   0  0.3464723E-02  0.3968858E+03  0.7816531E-02  0.1044863E+00
       21   -1    0    0  503  502  0.00000000000E+00  0.00000000000E+00  0.46415602085E+03  0.46415602085E+03  0.00000000000E+00 0. -1.
       21   -1    0    0  501  503  0.00000000000E+00  0.00000000000E+00 -0.39215356911E+03  0.39215356911E+03  0.00000000000E+00 0. -1.
  1000006    1    1    2  501    0 -0.20968405206E+02  0.18595335933E+03 -0.12108659422E+03  0.41494612802E+03  0.35000000000E+03 0.  0.
 -1000006    1    1    2    0  502  0.20968405206E+02 -0.18595335933E+03  0.19308904596E+03  0.44136346193E+03  0.35000000000E+03 0.  0.
<scales pt_clust_1="13000.00000" pt_clust_2="13000.00000"></scales>
<clustering>
<clus scale="  396.886">  2  3  1 -1</clus>
<clus scale="  396.886">  1  3  2 -1</clus>
</clustering>
</event>
<event>
 6   2  0.3464723E-02  0.4504173E+03  0.7816531E-02  0.1027598E+00
        2   -1    0    0  503    0  0.00000000000E+00  0.00000000000E+00  0.22405391182E+04  0.22405391182E+04  0.00000000000E+00 0. -1.
       21   -1    0    0  504  503  0.00000000000E+00  0.00000000000E+00 -0.19803766140E+03  0.19803766140E+03  0.00000000000E+00 0.  1.
  1000006    1    1    2  501    0  0.78860865369E+02  0.25987218326E+03  0.35096575869E+03  0.56518099003E+03  0.35000000000E+03 0.  0.
 -1000006    1    1    2    0  502 -0.76211912035E+02 -0.29354756401E+03  0.11049678770E+04  0.11980953372E+04  0.35000000000E+03 0.  0.
       21    1    1    2  504  501  0.30992211093E+02 -0.25107671572E+01 -0.37819941433E+02  0.48960893274E+02  0.00000000000E+00 0. -1.
        2    1    1    2  502    0 -0.33641164427E+02  0.36186147908E+02  0.62438776262E+03  0.62633955915E+03  0.00000000000E+00 0. -1.
<scales pt_clust_1="13000.00000" pt_clust_2="13000.00000" pt_clust_3="31.09375" pt_clust_4="49.26356"></scales>
<clustering>
<clus scale="   31.094">  2  5  1 -1</clus>
<clus scale="   49.264">  1  6  2 -1</clus>
<clus scale="  450.417">  1  4  2 -1</clus>
<clus scale="  450.417">  2  3  1 -1</clus>
</clustering>
</event>
<event>
 6   2  0.3464723E-02  0.3600730E+03  0.7816531E-02  0.1058555E+00
       21   -1    0    0  501  502  0.00000000000E+00  0.00000000000E+00  0.15973651700E+04  0.15973651700E+04  0.00000000000E+00 0.  1.
       21   -1    0    0  505  503  0.00000000000E+00  0.00000000000E+00 -0.25800405395E+03  0.25800405395E+03  0.00000000000E+00 0.  1.
  1000006    1    1    2  501    0 -0.33402807320E+02 -0.63688252455E+02  0.12428990439E+04  0.12932401070E+04  0.35000000000E+03 0.  0.
 -1000006    1    1    2    0  503 -0.18158551822E+02  0.19518319541E+03  0.53314245935E+02  0.40468335967E+03  0.35000000000E+03 0.  0.
       21    1    1    2  504  502  0.17904948648E+02 -0.11001512097E+03  0.33117881523E+02  0.11627857974E+03  0.00000000000E+00 0.  1.
       21    1    1    2  505  504  0.33656410494E+02 -0.21479821982E+02  0.10029944756E+02  0.41167177600E+02  0.00000000000E+00 0. -1.
<scales pt_clust_1="13000.00000" pt_clust_2="13000.00000" pt_clust_3="151.41807" pt_clust_4="32.66063"></scales>
<clustering>
<clus scale="   32.661">  5  6 -1 -1</clus>
<clus scale="  151.418">  2  5  1 -1</clus>
<clus scale="  360.073">  1  3  2 -1</clus>
<clus scale="  360.073">  1  3  2 -1</clus>
</clustering>
</event>
<event>
 6   2  0.3464723E-02  0.5147527E+03  0.7816531E-02  0.1009998E+00
       21   -1    0    0  501  502  0.00000000000E+00  0.00000000000E+00  0.16409718742E+04  0.16409718742E+04  0.00000000000E+00 0. -1.
       21   -1    0    0  505  503  0.00000000000E+00  0.00000000000E+00 -0.41513221875E+03  0.41513221875E+03  0.00000000000E+00 0.  1.
  1000006    1    1    2  501    0  0.83621919324E+02 -0.41404941241E+03  0.54110464666E+03  0.77053473636E+03  0.35000000000E+03 0.  0.
 -1000006    1    1    2    0  504  0.18528995474E+02  0.36184276727E+03  0.22411569241E+03  0.55136317930E+03  0.35000000000E+03 0.  0.
       21    1    1    2  504  503  0.29311104440E+02 -0.15800265518E+02 -0.12541991693E+03  0.12976495982E+03  0.00000000000E+00 0.  1.
       21    1    1    2  505  502 -0.13146201924E+03  0.68006910655E+02  0.58603923330E+03  0.60444121746E+03  0.00000000000E+00 0. -1.
<scales pt_clust_1="13000.00000" pt_clust_2="13000.00000" pt_clust_3="33.29849" pt_clust_4="146.94545"></scales>
<clustering>
<clus scale="   33.298">  2  5  1 -1</clus>
<clus scale="  146.945">  1  6  2 -1</clus>
<clus scale="  514.753">  2  4  1 -1</clus>
<clus scale="  514.753">  1  3  2 -1</clus>
</clustering>
</event>
<event>
 5   1  0.3464723E-02  0.4109545E+03  0.7816531E-02  0.1040051E+00
        1   -1    0    0  503    0  0.00000000000E+00  0.00000000000E+00  0.14556237460E+04  0.14556237460E+04  0.00000000000E+00 0. -1.
       21   -1    0    0  501  503  0.00000000000E+00  0.00000000000E+00 -0.15095451311E+03  0.15095451311E+03  0.00000000000E+00 0.  1.
  1000006    1    1    2  501    0  0.21140884107E+03  0.13378769124E+03  0.45037299988E+03  0.62283921154E+03  0.35000000000E+03 0.  0.
 -1000006    1    1    2    0  502 -0.16566359253E+03 -0.54069799698E+02  0.63162265700E+03  0.74284261454E+03  0.35000000000E+03 0.  0.
        1    1    1    2  502    0 -0.45745248542E+02 -0.79717891539E+02  0.22267357601E+03  0.24089643304E+03  0.00000000000E+00 0. -1.
<scales pt_clust_1="13000.00000" pt_clust_2="13000.00000" pt_clust_3="91.91066"></scales>
<clustering>
<clus scale="   91.911">  1  5  2 -1</clus>
<clus scale="  410.954">  2  3  1 -1</clus>
<clus scale="  410.954">  2  3  1 -1</clus>
</clustering>
</event>
<event>
 6   2  0.3464723E-02  0.3529533E+03  0.7816531E-02  0.1061409E+00
       21   -1    0    0  501  503  0.00000000000E+00  0.00000000000E+00  0.11294578136E+04  0.11294578136E+04  0.00000000000E+00 0. -1.
        2   -1    0    0  504    0  0.00000000000E+00  0.00000000000E+00 -0.14421298652E+04  0.14421298652E+04  0.00000000000E+00 0. -1.
  1000006    1    1    2  501    0 -0.42338234319E+02  0.17151847908E+02  0.83850271759E+03  0.90976563981E+03  0.35000000000E+03 0.  0.
 -1000006    1    1    2    0  502  0.57278145479E+02  0.57324561891E+02  0.11780610407E+03  0.37808090338E+03  0.35000000000E+03 0.  0.
       21    1    1    2  504  503  0.24812031867E+01 -0.39666978018E+02 -0.48788687877E+02  0.62928225615E+02  0.00000000000E+00 0.  1.
        2    1    1    2  502    0 -0.17421114347E+02 -0.34809431781E+02 -0.12201921854E+04  0.12208129099E+04  0.00000000000E+00 0. -1.
<scales pt_clust_1="13000.00000" pt_clust_2="13000.00000" pt_clust_3="48.47789" pt_clust_4="38.92546"></scales>
<clustering>
<clus scale="   38.925">  2  6  1 -1</clus>
<clus scale="   48.478">  2  5  1 -1</clus>
<clus scale="  352.953">  2  4  1 -1</clus>
<clus scale="  352.953">  1  3  2 -1</clus>
</clustering>
</event>
<event>
 4   0  0.3464723E-02  0.3679473E+03  0.7816531E-02  0.1055481E+00
       21   -1    0    0  501  502  0.00000000000E+00  0.00000000000E+00  0.65872738720E+03  0.65872738720E+03  0.00000000000E+00 0. -1.
       21   -1    0    0  502  503  0.00000000000E+00  0.00000000000E+00 -0.21299367355E+03  0.21299367355E+03  0.00000000000E+00 0. -1.
  1000006    1    1    2  501    0  0.10836268475E+03 -0.33804287017E+02  0.30448273796E+03  0.47759285902E+03  0.35000000000E+03 0.  0.
 -1000006    1    1    2    0  503 -0.10836268475E+03  0.33804287017E+02  0.14125097569E+03  0.39412820173E+03  0.35000000000E+03 0.  0.
<scales pt_clust_1="13000.00000" pt_clust_2="13000.00000"></scales>
<clustering>
<clus scale="  367.947">  1  3  2 -1</clus>
<clus scale="  367.947">  1  3  2 -1</clus>
</clustering>
</event>
<event>
 5   1  0.3464723E-02  0.4266728E+03  0.7816531E-02  0.1034916E+00
       21   -1    0    0  501  502  0.00000000000E+00  0.00000000000E+00  0.52291851939E+03  0.52291851939E+03  0.00000000000E+00 0.  1.
       21   -1    0    0  504  503  0.00000000000E+00  0.00000000000E+00 -0.85427284666E+03  0.85427284666E+03  0.00000000000E+00 0.  1.
  1000006    1    1    2  501    0  0.14553022480E+03 -0.19744515105E+03  0.35152028014E+03  0.55338064780E+03  0.35000000000E+03 0.  0.
 -1000006    1    1    2    0  503 -0.11292062523E+03  0.20922189452E+03 -0.60200843016E+03  0.73582539963E+03  0.35000000000E+03 0.  0.
       21    1    1    2  504  502 -0.32609599569E+02 -0.11776743462E+02 -0.80866177247E+02  0.87985318623E+02  0.00000000000E+00 0.  1.
<scales pt_clust_1="13000.00000" pt_clust_2="13000.00000" pt_clust_3="34.67099"></scales>
<clustering>
<clus scale="   34.671">  2  5  1 -1</clus>
<clus scale="  426.673">  1  3  2 -1</clus>
<clus scale="  426.673">  1  3  2 -1</clus>
</clustering>
</event>
<event>
 6   2  0.3464723E-02  0.3829180E+03  0.7816531E-02  0.1049860E+00
       21   -1    0    0  501  502  0.00000000000E+00  0.00000000000E+00  0.54422826170E+03  0.54422826170E+03  0.00000000000E+00 0.  1.
       21   -1    0    0  504  503  0.00000000000E+00  0.00000000000E+00 -0.87032817624E+03  0.87032817624E+03  0.00000000000E+00 0. -1.
  1000006    1    1    2  501    0  0.20440050146E+03  0.75817573099E+02  0.99230451909E+02  0.42411620103E+03  0.35000000000E+03 0.  0.
 -1000006    1    1    2    0  503 -0.10055201475E+03  0.16307481063E+02  0.85566496785E+01  0.36462289816E+03  0.35000000000E+03 0.  0.
       21    1    1    2  504  505 -0.54320603193E+02 -0.12910906589E+03 -0.50935645602E+03  0.52826496961E+03  0.00000000000E+00 0. -1.
       21    1    1    2  505  502 -0.49527883515E+02  0.36984011726E+02  0.75469439893E+02  0.97552369149E+02  0.00000000000E+00 0.  1.
<scales pt_clust_1="13000.00000" pt_clust_2="13000.00000" pt_clust_3="139.76907" pt_clust_4="61.81285"></scales>
<clustering>
<clus scale="   61.813">  1  6  2 -1</clus>
<clus scale="  139.769">  2  5  1 -1</clus>
<clus scale="  382.918">  1  3  2 -1</clus>
<clus scale="  382.918">  1  3  2 -1</clus>
</clustering>
</event>
<event>
 4   0  0.3464723E-02  0.3804448E+03  0.7816531E-02  0.1050769E+00
       21   -1    0    0  501  502  0.00000000000E+00  0.00000000000E+00  0.80430103133E+03  0.80430103133E+03  0.00000000000E+00 0.  1.
       21   -1    0    0  502  503  0.00000000000E+00  0.00000000000E+00 -0.56003973514E+03  0.56003973514E+03  0.00000000000E+00 0.  1.
  1000006    1    1    2  501    0 -0.75637855522E+02  0.12851917614E+03  0.68411401327E+03  0.78278365273E+03  0.35000000000E+03 0.  0.
 -1000006    1    1    2    0  503  0.75637855522E+02 -0.12851917614E+03 -0.43985271708E+03  0.58155711374E+03  0.35000000000E+03 0.  0.
<scales pt_clust_1="13000.00000" pt_clust_2="13000.00000"></scales>
<clustering>
<clus scale="  380.445">  1  3  2 -1</clus>
<clus scale="  380.445">  1  3  2 -1</clus>
</clustering>
</event>
<event>
 6   2  0.3464723E-02  0.4003834E+03  0.7816531E-02  0.1043647E+00
        2   -1    0    0  504    0  0.00000000000E+00  0.00000000000E+00  0.17079608785E+04  0.17079608785E+04  0.00000000000E+00 0.  1.
       21   -1    0    0  501  503  0.00000000000E+00  0.00000000000E+00 -0.91825088987E+03  0.91825088987E+03  0.00000000000E+00 0. -1.
  1000006    1    1    2  501    0 -0.28925473137E+02  0.20019567733E+03 -0.73716679380E+03  0.84073174919E+03  0.35000000000E+03 0.  0.
 -1000006    1    1    2    0  502  0.89338094362E+01 -0.14306301057E+03  0.23553406742E+03  0.44555935055E+03  0.35000000000E+03 0.  0.
       21    1    1    2  504  503 -0.11313076973E+03  0.58215607946E+02  0.21956135112E+03  0.25376133467E+03  0.00000000000E+00 0. -1.
        2    1    1    2  502    0  0.13312243343E+03 -0.11534827471E+03  0.10717813639E+04  0.10861593340E+04  0.00000000000E+00 0.  1.
<scales pt_clust_1="13000.00000" pt_clust_2="13000.00000" pt_clust_3="127.23061" pt_clust_4="88.28813"></scales>
<clustering>
<clus scale="  127.231">  1  5  2 -1</clus>
<clus scale="   88.288">  1  6  2 -1</clus>
<clus scale="  400.383">  1  4  2 -1</clus>
<clus scale="  400.383">  2  3  1 -1</clus>
</clustering>
</event>
<event>
 6   2  0.3464723E-02  0.5321009E+03  0.7816531E-02  0.1005724E+00
       21   -1    0    0  505  502  0.00000000000E+00  0.00000000000E+00  0.13651547964E+04  0.13651547964E+04  0.00000000000E+00 0. -1.
       21   -1    0    0  504  503  0.00000000000E+00  0.00000000000E+00 -0.42142051932E+03  0.42142051932E+03  0.00000000000E+00 0.  1.
  1000006    1    1    2  501    0  0.38549465364E+03  0.27476649802E+03  0.35209134020E+03  0.68598182794E+03  0.35000000000E+03 0.  0.
 -1000006    1    1    2    0  502 -0.27381924020E+03 -0.24071403810E+03  0.66642256922E+03  0.83638463951E+03  0.35000000000E+03 0.  0.
       21    1    1    2  504  501 -0.71901555982E+02  0.42728714689E+02 -0.13501716079E+03  0.15882446449E+03  0.00000000000E+00 0.  1.
       21    1    1    2  505  503 -0.39773857463E+02 -0.76781174612E+02  0.60237528459E+02  0.10538438379E+03  0.00000000000E+00 0. -1.
<scales pt_clust_1="13000.00000" pt_clust_2="13000.00000" pt_clust_3="83.63956" pt_clust_4="86.34455"></scales>
<clustering>
<clus scale="   83.640">  2  5  1 -1</clus>
<clus scale="   86.345">  2  6  1 -1</clus>
<clus scale="  532.101">  1  4  2 -1</clus>
<clus scale="  532.101">  1  3  2 -1</clus>
</clustering>
</event>
<event>
 6   2  0.3464723E-02  0.3582664E+03  0.7816531E-02  0.1059272E+00
       21   -1    0    0  502  503  0.00000000000E+00  0.00000000000E+00  0.15593312302E+03  0.15593312302E+03  0.00000000000E+00 0. -1.
        2   -1    0    0  504    0  0.00000000000E+00  0.00000000000E+00 -0.16326863602E+04  0.16326863602E+04  0.00000000000E+00 0. -1.
  1000006    1    1    2  501    0  0.53703939912E+02  0.55940073618E+02 -0.77900617711E+03  0.85753368970E+03  0.35000000000E+03 0.  0.
 -1000006    1    1    2    0  503  0.42915809433E+01 -0.82885667311E+02 -0.18927490002E+03  0.40646456093E+03  0.35000000000E+03 0.  0.
       21    1    1    2  504  501 -0.21582132039E+01  0.44809482786E+02 -0.76458300133E+02  0.88647725809E+02  0.00000000000E+00 0. -1.
        2    1    1    2  502    0 -0.55837307651E+02 -0.17863889094E+02 -0.43201385992E+03  0.43597350679E+03  0.00000000000E+00 0. -1.
<scales pt_clust_1="13000.00000" pt_clust_2="13000.00000" pt_clust_3="44.86143" pt_clust_4="56.69157"></scales>
<clustering>
<clus scale="   44.861">  2  5  1 -1</clus>
<clus scale="   56.692">  2  6  1 -1</clus>
<clus scale="  358.266">  2  3  1 -1</clus>
<clus scale="  358.266">  1  3  2 -1</clus>
</clustering>
</event>
<event>
 6   2  0.3464723E-02  0.6104730E+03  0.7816531E-02  0.9883913E-01
       21   -1    0    0  504  502  0.00000000000E+00  0.00000000000E+00  0.34428484447E+03  0.34428484447E+03  0.00000000000E+00 0. -1.
       21   -1    0    0  505  503  0.00000000000E+00  0.00000000000E+00 -0.19125946245E+04  0.19125946245E+04  0.00000000000E+00 0. -1.
  1000006    1    1    2  501    0 -0.22843366470E+03 -0.48455559923E+03 -0.72630968567E+03  0.96798854715E+03  0.35000000000E+03 0.  0.
 -1000006    1    1    2    0  503  0.18367612996E+03  0.42876686516E+03 -0.86366763792E+03  0.10421131101E+04  0.35000000000E+03 0.  0.
       21    1    1    2  504  501  0.11349178743E+02  0.33758869839E+02  0.12815885938E+03  0.13301563212E+03  0.00000000000E+00 0.  1.
       21    1    1    2  505  502  0.33408356000E+02  0.22029864237E+02 -0.10649131578E+03  0.11376217959E+03  0.00000000000E+00 0.  1.
<scales pt_clust_1="13000.00000" pt_clust_2="13000.00000" pt_clust_3="35.61552" pt_clust_4="40.49697"></scales>
<clustering>
<clus scale="   35.616">  1  5  2 -1</clus>
<clus scale="   40.497">  2  6  1 -1</clus>
<clus scale="  610.473">  1  3  2 -1</clus>
<clus scale="  610.473">  1  3  2 -1</clus>
</clustering>
</event>
<event>
 4   0  0.3464723E-02  0.4625201E+03  0.7816531E-02  0.1024053E+00
       21   -1    0    0  501  502  0.00000000000E+00  0.00000000000E+00  0.24135473775E+03  0.24135473775E+03  0.00000000000E+00 0. -1.
       21   -1    0    0  502  503  0.00000000000E+00  0.00000000000E+00 -0.90538086642E+03  0.90538086642E+03  0.00000000000E+00 0. -1.
  1000006    1    1    2  501    0  0.16251104082E+03  0.25498035645E+03 -0.24888558333E+03  0.52523219071E+03  0.35000000000E+03 0.  0.
 -1000006    1    1    2    0  503 -0.16251104082E+03 -0.25498035645E+03 -0.41514054534E+03  0.62150341347E+03  0.35000000000E+03 0.  0.
<scales pt_clust_1="13000.00000" pt_clust_2="13000.00000"></scales>
<clustering>
<clus scale="  462.520">  1  3  2 -1</clus>
<clus scale="  462.520">  1  3  2 -1</clus>
</clustering>
</event>
<event>
 4   0  0.3464723E-02  0.4350111E+03  0.7816531E-02  0.1032289E+00
       21   -1    0    0  503  502  0.00000000000E+00  0.00000000000E+00  0.26664558990E+03  0.26664558990E+03  0.00000000000E+00 0. -1.
       21   -1    0    0  501  503  0.00000000000E+00  0.00000000000E+00 -0.70978702486E+03  0.70978702486E+03  0.00000000000E+00 0.  1.
  1000006    1    1    2  501    0  0.21943427272E+03  0.13632051812E+03 -0.22739076959E+03  0.49085766349E+03  0.35000000000E+03 0.  0.
 -1000006    1    1    2    0  502 -0.21943427272E+03 -0.13632051812E+03 -0.21575066537E+03  0.48557495128E+03  0.35000000000E+03 0.  0.
<scales pt_clust_1="13000.00000" pt_clust_2="13000.00000"></scales>
<clustering>
<clus scale="  435.011">  2  3  1 -1</clus>
<clus scale="  435.011">  1  3  2 -1</clus>
</clustering>
</event>
<event>
 5   1  0.3464723E-02  0.4438395E+03  0.7816531E-02  0.1029575E+00
       21   -1    0    0  503  502  0.00000000000E+00  0.00000000000E+00  0.11659724085E+04  0.11659724085E+04  0.00000000000E+00 0.  1.
       21   -1    0    0  504  503  0.00000000000E+00  0.00000000000E+00 -0.37937253379E+03  0.37937253379E+03  0.00000000000E+00 0.  1.
  1000006    1    1    2  501    0  0.25200749468E+03 -0.14446750170E+03  0.71867102095E+02  0.46048183111E+03  0.35000000000E+03 0.  0.
 -1000006    1    1    2    0  502 -0.21869866909E+03  0.15548719068E+03  0.84326377559E+03  0.95162974394E+03  0.35000000000E+03 0.  0.
       21    1    1    2  504  501 -0.33308825583E+02 -0.11019688977E+02 -0.12853100300E+03  0.13323336721E+03  0.00000000000E+00 0.  1.
<scales pt_clust_1="13000.00000" pt_clust_2="13000.00000" pt_clust_3="35.08435"></scales>
<clustering>
<clus scale="   35.084">  2  5  1 -1</clus>
<clus scale="  443.839">  2  3  1 -1</clus>
<clus scale="  443.839">  1  3  2 -1</clus>
</clustering>
</event>
<event>
 6   2  0.3464723E-02  0.5083856E+03  0.7816531E-02  0.1011613E+00
        4   -1    0    0  504    0  0.00000000000E+00  0.00000000000E+00  0.12246083725E+04  0.12246083725E+04  0.00000000000E+00 0. -1.
       21   -1    0    0  501  503  0.00000000000E+00  0.00000000000E+00 -0.10482099193E+04  0.10482099193E+04  0.00000000000E+00 0. -1.
  1000006    1    1    2  501    0 -0.28745425619E+03  0.55166420687E+02 -0.28982184367E+03  0.54052750572E+03  0.35000000000E+03 0.  0.
 -1000006    1    1    2    0  502  0.46426045855E+03  0.24892390205E+03 -0.40199542578E+03  0.74940056361E+03  0.35000000000E+03 0.  0.
       21    1    1    2  504  503  0.57463028243E+02  0.15707873596E+02  0.72031347717E+02  0.93473268701E+02  0.00000000000E+00 0. -1.
        4    1    1    2  502    0 -0.23426923061E+03 -0.31979819634E+03  0.79618437491E+03  0.88941695377E+03  0.00000000000E+00 0. -1.
<scales pt_clust_1="13000.00000" pt_clust_2="13000.00000" pt_clust_3="59.57128" pt_clust_4="363.04072"></scales>
<clustering>
<clus scale="   59.571">  1  5  2 -1</clus>
<clus scale="  363.041">  1  6  2 -1</clus>
<clus scale="  508.386">  2  3  1 -1</clus>
<clus scale="  508.386">  2  3  1 -1</clus>
</clustering>
</event>
<event>
 5   1  0.3464723E-02  0.3513141E+03  0.7816531E-02  0.1062077E+00
       21   -1    0    0  503  502  0.00000000000E+00  0.00000000000E+00  0.10729830609E+04  0.10729830609E+04  0.00000000000E+00 0.  1.
       21   -1    0    0  501  503  0.00000000000E+00  0.00000000000E+00 -0.14859658907E+03  0.14859658907E+03  0.00000000000E+00 0.  1.
  1000006    1    1    2  501    0  0.20845786984E+02 -0.39282940066E+02  0.31814099922E+03  0.47506988076E+03  0.35000000000E+03 0.  0.
 -1000006    1    1    2    0  504 -0.26155516475E+02 -0.32173946298E+01  0.38427077975E+03  0.52044067370E+03  0.35000000000E+03 0.  0.
       21    1    1    2  504  502  0.53097294913E+01  0.42500334695E+02  0.22197469282E+03  0.22606909548E+03  0.00000000000E+00 0.  1.
<scales pt_clust_1="13000.00000" pt_clust_2="13000.00000" pt_clust_3="42.83073"></scales>
<clustering>
<clus scale="   42.831">  1  5  2 -1</clus>
<clus scale="  351.314">  2  3  1 -1</clus>
<clus scale="  351.314">  1  3  2 -1</clus>
</clustering>
</event>
<event>
 5   1  0.3464723E-02  0.4646299E+03  0.7816531E-02  0.1023447E+00
       21   -1    0    0  504  502  0.00000000000E+00  0.00000000000E+00  0.98472458867E+03  0.98472458867E+03  0.00000000000E+00 0.  1.
       21   -1    0    0  502  503  0.00000000000E+00  0.00000000000E+00 -0.60300457200E+03  0.60300457200E+03  0.00000000000E+00 0.  1.
  1000006    1    1    2  501    0 -0.16898399091E+03 -0.27919136500E+03  0.14825112759E+03  0.50098084226E+03  0.35000000000E+03 0.  0.
 -1000006    1    1    2    0  503  0.12372746096E+03  0.27135941406E+03 -0.30146818521E+03  0.54984314390E+03  0.35000000000E+03 0.  0.
       21    1    1    2  504  501  0.45256529949E+02  0.78319509390E+01  0.53493707430E+03  0.53690517451E+03  0.00000000000E+00 0.  1.
<scales pt_clust_1="13000.00000" pt_clust_2="13000.00000" pt_clust_3="45.92922"></scales>
<clustering>
<clus scale="   45.929">  1  5  2 -1</clus>
<clus scale="  464.630">  1  3  2 -1</clus>
<clus scale="  464.630">  1  3  2 -1</clus>
</clustering>
</event>
<event>
 4   0  0.3464723E-02  0.4092731E+03  0.7816531E-02  0.1040615E+00
       21   -1    0    0  503  502  0.00000000000E+00  0.00000000000E+00  0.20708412555E+03  0.20708412555E+03  0.00000000000E+00 0.  1.
       21   -1    0    0  501  503  0.00000000000E+00  0.00000000000E+00 -0.80910628013E+03  0.80910628013E+03  0.00000000000E+00 0.  1.
  1000006    1    1    2  501    0 -0.19455835981E+03  0.84566543786E+02 -0.30966544404E+03  0.51322231336E+03  0.35000000000E+03 0.  0.
 -1000006    1    1    2    0  502  0.19455835981E+03 -0.84566543786E+02 -0.29235671054E+03  0.50296809232E+03  0.35000000000E+03 0.  0.
<scales pt_clust_1="13000.00000" pt_clust_2="13000.00000"></scales>
<clustering>
<clus scale="  409.273">  2  3  1 -1</clus>
<clus scale="  409.273">  1  3  2 -1</clus>
</clustering>
</event>
<event>
 6   2  0.3464723E-02  0.3982996E+03  0.7816531E-02  0.1044370E+00
       21   -1    0    0  501  503  0.00000000000E+00  0.00000000000E+00  0.11443865995E+04  0.11443865995E+04  0.00000000000E+00 0.  1.
        2   -1    0    0  504    0  0.00000000000E+00  0.00000000000E+00 -0.27004867446E+04  0.27004867446E+04  0.00000000000E+00 0. -1.
  1000006    1    1    2  501    0 -0.10792179915E+03 -0.16010471862E+03  0.56636664425E+03  0.69321844419E+03  0.35000000000E+03 0.  0.
 -1000006    1    1    2    0  502  0.98490134389E+02  0.15282166611E+03  0.41775128561E+03  0.57451797607E+03  0.35000000000E+03 0.  0.
       21    1    1    2  504  503 -0.45121254149E+02 -0.52425551516E+01 -0.10271961748E+02  0.46571720589E+02  0.00000000000E+00 0. -1.
        2    1    1    2  502    0  0.54552918914E+02  0.12525607669E+02 -0.25299461132E+04  0.25305652032E+04  0.00000000000E+00 0. -1.
<scales pt_clust_1="13000.00000" pt_clust_2="13000.00000" pt_clust_3="45.42479" pt_clust_4="55.96001"></scales>
<clustering>
<clus scale="   45.425">  1  5  2 -1</clus>
<clus scale="   55.960">  2  6  1 -1</clus>
<clus scale="  398.300">  2  4  1 -1</clus>
<clus scale="  398.300">  1  3  2 -1</clus>
</clustering>
</event>
<event>
 6   2  0.3464723E-02  0.3529606E+03  0.7816531E-02  0.1061406E+00
       21   -1    0    0  504  502  0.00000000000E+00  0.00000000000E+00  0.26943386025E+04  0.26943386025E+04  0.00000000000E+00 0.  1.
       21   -1    0    0  502  503  0.00000000000E+00  0.00000000000E+00 -0.48540932767E+03  0.48540932767E+03  0.00000000000E+00 0.  1.
  1000006    1    1    2  501    0  0.15665034764E+02 -0.45616604937E+02  0.12803525660E+04  0.13282051654E+04  0.35000000000E+03 0.  0.
 -1000006    1    1    2    0  505  0.13051778472E+02  0.87779027660E+02  0.33223418892E+03  0.49066797624E+03  0.35000000000E+03 0.  0.
       21    1    1    2  504  501 -0.24717075444E+02  0.18778123343E+02  0.97592107439E+03  0.97641461233E+03  0.00000000000E+00 0.  1.
       21    1    1    2  505  503 -0.39997377916E+01 -0.60940546066E+02 -0.37957855451E+03  0.38446017623E+03  0.00000000000E+00 0.  1.
<scales pt_clust_1="13000.00000" pt_clust_2="13000.00000" pt_clust_3="31.04113" pt_clust_4="61.04736"></scales>
<clustering>
<clus scale="   31.041">  1  5  2 -1</clus>
<clus scale="   61.047">  2  6  1 -1</clus>
<clus scale="  352.961">  1  3  2 -1</clus>
<clus scale="  352.961">  1  3  2 -1</clus>
</clustering>
</event>
<event>
 5   1  0.3464723E-02  0.3717374E+03  0.7816531E-02  0.1054031E+00
       21   -1    0    0  501  502  0.00000000000E+00  0.00000000000E+00  0.12630595262E+04  0.12630595262E+04  0.00000000000E+00 0.  1.
       21   -1    0    0  504  503  0.00000000000E+00  0.00000000000E+00 -0.64086555835E+03  0.64086555835E+03  0.00000000000E+00 0.  1.
  1000006    1    1    2  501    0  0.88853648662E+02 -0.30354867383E+03  0.94693500509E+03  0.10579332078E+04  0.35000000000E+03 0.  0.
 -1000006    1    1    2    0  503  0.51544811079E+02  0.10532931635E+03 -0.44233683637E+03  0.57611891936E+03  0.35000000000E+03 0.  0.
       21    1    1    2  504  502 -0.14039845974E+03  0.19821935748E+03  0.11759579916E+03  0.26987295744E+03  0.00000000000E+00 0.  1.
<scales pt_clust_1="13000.00000" pt_clust_2="13000.00000" pt_clust_3="242.90459"></scales>
<clustering>
<clus scale="  242.905">  1  5  2 -1</clus>
<clus scale="  371.737">  2  4  1 -1</clus>
<clus scale="  371.737">  1  3  2 -1</clus>
</clustering>
</event>
<event>
 4   0  0.3464723E-02  0.4157832E+03  0.7816531E-02  0.1038448E+00
       21   -1    0    0  501  502  0.00000000000E+00  0.00000000000E+00  0.27377375667E+03  0.27377375667E+03  0.00000000000E+00 0.  1.
       21   -1    0    0  502  503  0.00000000000E+00  0.00000000000E+00 -0.67576664425E+03  0.67576664425E+03  0.00000000000E+00 0.  1.
  1000006    1    1    2  501    0 -0.21078552931E+03  0.77104842441E+02 -0.79420960769E+02  0.42330058481E+03  0.35000000000E+03 0.  0.
 -1000006    1    1    2    0  503  0.21078552931E+03 -0.77104842441E+02 -0.32257192681E+03  0.52623981611E+03  0.35000000000E+03 0.  0.
<scales pt_clust_1="13000.00000" pt_clust_2="13000.00000"></scales>
<clustering>
<clus scale="  415.783">  1  3  2 -1</clus>
<clus scale="  415.783">  1  3  2 -1</clus>
</clustering>
</event>
<event>
 6   2  0.3464723E-02  0.4520556E+03  0.7816531E-02  0.1027111E+00
       21   -1    0    0  504  502  0.00000000000E+00  0.00000000000E+00  0.11735611405E+04  0.11735611405E+04  0.00000000000E+00 0. -1.
       21   -1    0    0  505  503  0.00000000000E+00  0.00000000000E+00 -0.38978009598E+03  0.38978009598E+03  0.00000000000E+00 0. -1.
  1000006    1    1    2  501    0 -0.23806231149E+03  0.31330830747E+03  0.25309539028E+03  0.58428848719E+03  0.35000000000E+03 0.  0.
 -1000006    1    1    2    0  503  0.14630112684E+03 -0.12567555715E+03  0.24916006685E+03  0.47093428872E+03  0.35000000000E+03 0.  0.
       21    1    1    2  504  501  0.41919122208E+02 -0.16999903815E+03  0.36756274847E+03  0.40713543181E+03  0.00000000000E+00 0. -1.
       21    1    1    2  505  502  0.49842062443E+02 -0.17633712180E+02 -0.86037161120E+02  0.10098302871E+03  0.00000000000E+00 0. -1.
<scales pt_clust_1="13000.00000" pt_clust_2="13000.00000" pt_clust_3="177.05600" pt_clust_4="52.86945"></scales>
<clustering>
<clus scale="   52.869">  2  6  1 -1</clus>
<clus scale="  177.056">  1  5  2 -1</clus>
<clus scale="  452.056">  1  3  2 -1</clus>
<clus scale="  452.056">  1  3  2 -1</clus>
</clustering>
</event>
<event>
 5   1  0.3464723E-02  0.3675194E+03  0.7816531E-02  0.1055646E+00
       21   -1    0    0  501  502  0.00000000000E+00  0.00000000000E+00  0.13935344150E+04  0.13935344150E+04  0.00000000000E+00 0. -1.
       21   -1    0    0  504  503  0.00000000000E+00  0.00000000000E+00 -0.17038918588E+03  0.17038918588E+03  0.00000000000E+00 0. -1.
  1000006    1    1    2  501    0 -0.79288819370E+02  0.52186212089E+02  0.64366995897E+03  0.73879708560E+03  0.35000000000E+03 0.  0.
 -1000006    1    1    2    0  503  0.69160329807E+02 -0.11808989239E+03  0.63532402617E+03  0.73814970848E+03  0.35000000000E+03 0.  0.
       21    1    1    2  504  502  0.10128489563E+02  0.65903680298E+02 -0.55848755998E+02  0.86976806818E+02  0.00000000000E+00 0.  1.
<scales pt_clust_1="13000.00000" pt_clust_2="13000.00000" pt_clust_3="66.67744"></scales>
<clustering>
<clus scale="   66.677">  2  5  1 -1</clus>
<clus scale="  367.519">  1  3  2 -1</clus>
<clus scale="  367.519">  1  3  2 -1</clus>
</clustering>
</event>
<event>
 4   0  0.3464723E-02  0.5119653E+03  0.7816531E-02  0.1010702E+00
       21   -1    0    0  501  502  0.00000000000E+00  0.00000000000E+00  0.45686580710E+03  0.45686580710E+03  0.00000000000E+00 0. -1.
       21   -1    0    0  502  503  0.00000000000E+00  0.00000000000E+00 -0.57504093217E+03  0.57504093217E+03  0.00000000000E+00 0.  1.
  1000006    1    1    2  501    0 -0.31163919467E+03 -0.20612969548E+03 -0.34264551814E+02  0.51311061042E+03  0.35000000000E+03 0.  0.
 -1000006    1    1    2    0  503  0.31163919467E+03  0.20612969548E+03 -0.83910573256E+02  0.51879612886E+03  0.35000000000E+03 0.  0.
<scales pt_clust_1="13000.00000" pt_clust_2="13000.00000"></scales>
<clustering>
<clus scale="  511.965">  1  3  2 -1</clus>
<clus scale="  511.965">  1  3  2 -1</clus>
</clustering>
</event>
<event>
 4   0  0.3464723E-02  0.4200397E+03  0.7816531E-02  0.1037053E+00
       21   -1    0    0  501  502  0.00000000000E+00  0.00000000000E+00  0.45927106230E+03  0.45927106230E+03  0.00000000000E+00 0.  1.
       21   -1    0    0  502  503  0.00000000000E+00  0.00000000000E+00 -0.45759876135E+03  0.45759876135E+03  0.00000000000E+00 0.  1.
  1000006    1    1    2  501    0 -0.19295513572E+03 -0.12923492023E+03  0.18448971681E+03  0.45876988198E+03  0.35000000000E+03 0.  0.
 -1000006    1    1    2    0  503  0.19295513572E+03  0.12923492023E+03 -0.18281741586E+03  0.45809994166E+03  0.35000000000E+03 0.  0.
<scales pt_clust_1="13000.00000" pt_clust_2="13000.00000"></scales>
<clustering>
<clus scale="  420.040">  1  3  2 -1</clus>
<clus scale="  420.040">  1  3  2 -1</clus>
</clustering>
</event>
<event>
 6   2  0.3464723E-02  0.3845227E+03  0.7816531E-02  0.1049275E+00
       21   -1    0    0  504  502  0.00000000000E+00  0.00000000000E+00  0.17398862492E+04  0.17398862492E+04  0.00000000000E+00 0. -1.
       21   -1    0    0  505  503  0.00000000000E+00  0.00000000000E+00 -0.10821727166E+03  0.10821727166E+03  0.00000000000E+00 0. -1.
  1000006    1    1    2  501    0 -0.18959926998E+03  0.22578478796E+02  0.76222400487E+03  0.86019945622E+03  0.35000000000E+03 0.  0.
 -1000006    1    1    2    0  502  0.13352296442E+03  0.47926879509E+01  0.81583880785E+03  0.89774401267E+03  0.35000000000E+03 0.  0.
       21    1    1    2  504  503  0.23414386419E+02 -0.29599996071E+02  0.39128218094E+02  0.54363689260E+02  0.00000000000E+00 0. -1.
       21    1    1    2  505  501  0.32661919145E+02  0.22288293246E+01  0.14477946733E+02  0.35796362720E+02  0.00000000000E+00 0. -1.
<scales pt_clust_1="13000.00000" pt_clust_2="13000.00000" pt_clust_3="39.24355" pt_clust_4="32.73788"></scales>
<clustering>
<clus scale="   32.738">  2  6  1 -1</clus>
<clus scale="   39.244">  2  5  1 -1</clus>
<clus scale="  384.523">  2  3  1 -1</clus>
<clus scale="  384.523">  1  3  2 -1</clus>
</clustering>
</event>
<event>
 4   0  0.3464723E-02  0.3833179E+03  0.7816531E-02  0.1049714E+00
       21   -1    0    0  501  502  0.00000000000E+00  0.00000000000E+00  0.14031852615E+03  0.14031852615E+03  0.00000000000E+00 0.  1.
       21   -1    0    0  502  503  0.00000000000E+00  0.00000000000E+00 -0.10809758622E+04  0.10809758622E+04  0.00000000000E+00 0.  1.
  1000006    1    1    2  501    0  0.12484082716E+03 -0.94060584158E+02 -0.36228617834E+03  0.52743141795E+03  0.35000000000E+03 0.  0.
 -1000006    1    1    2    0  503 -0.12484082716E+03  0.94060584158E+02 -0.57837115768E+03  0.69386297037E+03  0.35000000000E+03 0.  0.
<scales pt_clust_1="13000.00000" pt_clust_2="13000.00000"></scales>
<clustering>
<clus scale="  383.318">  1  3  2 -1</clus>
<clus scale="  383.318">  1  3  2 -1</clus>
</clustering>
</event>
<event>
 6   2  0.3464723E-02  0.3523850E+03  0.7816531E-02  0.1061640E+00
       21   -1    0    0  501  502  0.00000000000E+00  0.00000000000E+00  0.13353295206E+03  0.13353295206E+03  0.00000000000E+00 0.  1.
       21   -1    0    0  504  503  0.00000000000E+00  0.00000000000E+00 -0.16543591411E+04  0.16543591411E+04  0.00000000000E+00 0.  1.
  1000006    1    1    2  501    0  0.56542181804E+02  0.24006179735E+02 -0.60111355743E+03  0.69829136033E+03  0.35000000000E+03 0.  0.
 -1000006    1    1    2    0  503 -0.18919479957E+01  0.87030432911E+02 -0.66059127235E+03  0.75263450945E+03  0.35000000000E+03 0.  0.
       21    1    1    2  504  505 -0.24584602827E+02 -0.12435880067E+03 -0.27321307869E+03  0.30118914384E+03  0.00000000000E+00 0.  1.
       21    1    1    2  505  502 -0.30065630982E+02  0.13322188027E+02  0.14091719456E+02  0.35777079497E+02  0.00000000000E+00 0.  1.
<scales pt_clust_1="13000.00000" pt_clust_2="13000.00000" pt_clust_3="125.90106" pt_clust_4="32.88499"></scales>
<clustering>
<clus scale="   32.885">  1  6  2 -1</clus>
<clus scale="  125.901">  2  5  1 -1</clus>
<clus scale="  352.385">  1  3  2 -1</clus>
<clus scale="  352.385">  1  3  2 -1</clus>
</clustering>
</event>
<event>
 5   1  0.3464723E-02  0.3729683E+03  0.7816531E-02  0.1053564E+00
       21   -1    0    0  501  502  0.00000000000E+00  0.00000000000E+00  0.60236000567E+03  0.60236000567E+03  0.00000000000E+00 0. -1.
       21   -1    0    0  504  503  0.00000000000E+00  0.00000000000E+00 -0.51104732057E+03  0.51104732057E+03  0.00000000000E+00 0. -1.
  1000006    1    1    2  501    0  0.50553139941E+02  0.12166845018E+03  0.26060993830E+03  0.45582493533E+03  0.35000000000E+03 0.  0.
 -1000006    1    1    2    0  503  0.52543119464E+01 -0.13183904431E+03  0.96098597278E+02  0.38619176816E+03  0.35000000000E+03 0.  0.
       21    1    1    2  504  502 -0.55807451887E+02  0.10170594121E+02 -0.26539585047E+03  0.27139062275E+03  0.00000000000E+00 0. -1.
<scales pt_clust_1="13000.00000" pt_clust_2="13000.00000" pt_clust_3="56.72665"></scales>
<clustering>
<clus scale="   56.727">  2  5  1 -1</clus>
<clus scale="  372.968">  1  3  2 -1</clus>
<clus scale="  372.968">  1  3  2 -1</clus>
</clustering>
</event>
<event>
 6   2  0.3464723E-02  0.4306176E+03  0.7816531E-02  0.1033665E+00
       21   -1    0    0  501  502  0.00000000000E+00  0.00000000000E+00  0.17150665718E+04  0.17150665718E+04  0.00000000000E+00 0.  1.
       21   -1    0    0  504  503  0.00000000000E+00  0.00000000000E+00 -0.17273170868E+03  0.17273170868E+03  0.00000000000E+00 0.  1.
  1000006    1    1    2  501    0  0.23851518427E+03  0.73930172730E+02  0.91260849505E+03  0.10088158548E+04  0.35000000000E+03 0.  0.
 -1000006    1    1    2    0  503 -0.27007439492E+03  0.38390390922E+02  0.34633864659E+03  0.56290714956E+03  0.35000000000E+03 0.  0.
       21    1    1    2  504  505  0.25942951240E+02 -0.17422485728E+02  0.22784545615E+02  0.38674477978E+02  0.00000000000E+00 0.  1.
       21    1    1    2  505  502  0.56162594120E+01 -0.94898077924E+02  0.26060317582E+03  0.27740079814E+03  0.00000000000E+00 0. -1.
<scales pt_clust_1="13000.00000" pt_clust_2="13000.00000" pt_clust_3="31.25028" pt_clust_4="96.03704"></scales>
<clustering>
<clus scale="   31.250">  2  5  1 -1</clus>
<clus scale="   96.037">  1  6  2 -1</clus>
<clus scale="  430.618">  2  4  1 -1</clus>
<clus scale="  430.618">  1  3  2 -1</clus>
</clustering>
</event>
<event>
 6   2  0.3464723E-02  0.3956190E+03  0.7816531E-02  0.1045307E+00
        2   -1    0    0  504    0  0.00000000000E+00  0.00000000000E+00  0.17486349752E+04  0.17486349752E+04  0.00000000000E+00 0.  1.
       21   -1    0    0  501  503  0.00000000000E+00  0.00000000000E+00 -0.11658144092E+04  0.11658144092E+04  0.00000000000E+00 0.  1.
  1000006    1    1    2  501    0  0.19203813675E+03  0.44766927965E+01 -0.58854792133E+03  0.71118727664E+03  0.35000000000E+03 0.  0.
 -1000006    1    1    2    0  502 -0.17463676352E+03  0.23589757968E+02 -0.43112166661E+03  0.58259794651E+03  0.35000000000E+03 0.  0.
       21    1    1    2  504  503 -0.60197668410E+02  0.22312434418E+02  0.11500431481E+03  0.13171027461E+03  0.00000000000E+00 0.  1.
        2    1    1    2  502    0  0.42796295179E+02 -0.50378885182E+02  0.14874858391E+04  0.14889538866E+04  0.00000000000E+00 0.  1.
<scales pt_clust_1="13000.00000" pt_clust_2="13000.00000" pt_clust_3="64.19972" pt_clust_4="32.38502"></scales>
<clustering>
<clus scale="   64.200">  1  5  2 -1</clus>
<clus scale="   32.385">  1  6  2 -1</clus>
<clus scale="  395.619">  1  4  2 -1</clus>
<clus scale="  395.619">  2  3  1 -1</clus>
</clustering>
</event>
<event>
 6   2  0.3464723E-02  0.3744255E+03  0.7816531E-02  0.1053014E+00
        1   -1    0    0  503    0  0.00000000000E+00  0.00000000000E+00  0.14791253523E+04  0.14791253523E+04  0.00000000000E+00 0. -1.
       21   -1    0    0  504  503  0.00000000000E+00  0.00000000000E+00 -0.45065378199E+03  0.45065378199E+03  0.00000000000E+00 0. -1.
  1000006    1    1    2  501    0 -0.12003115659E+03 -0.31465270105E+02  0.63695682957E+02  0.37676873782E+03  0.35000000000E+03 0.  0.
 -1000006    1    1    2    0  502  0.10495267603E+03 -0.48517862066E+02  0.93813813534E+03  0.10079544673E+04  0.35000000000E+03 0.  0.
       21    1    1    2  504  501 -0.14858545787E+02  0.94146889421E+02 -0.24942409896E+03  0.26701459569E+03  0.00000000000E+00 0. -1.
        1    1    1    2  502    0  0.29937026340E+02 -0.14163757250E+02  0.27606185102E+03  0.27804133354E+03  0.00000000000E+00 0. -1.
<scales pt_clust_1="13000.00000" pt_clust_2="13000.00000" pt_clust_3="95.17589" pt_clust_4="33.11854"></scales>
<clustering>
<clus scale="   33.119">  1  6  2 -1</clus>
<clus scale="   95.176">  2  5  1 -1</clus>
<clus scale="  374.426">  1  4  2 -1</clus>
<clus scale="  374.426">  2  3  1 -1</clus>
</clustering>
</event>
<event>
 5   1  0.3464723E-02  0.3537614E+03  0.7816531E-02  0.1061082E+00
       21   -1    0    0  501  502  0.00000000000E+00  0.00000000000E+00  0.87795838395E+02  0.87795838395E+02  0.00000000000E+00 0. -1.
       21   -1    0    0  504  503  0.00000000000E+00  0.00000000000E+00 -0.19295326560E+04  0.19295326560E+04  0.00000000000E+00 0. -1.
  1000006    1    1    2  501    0 -0.73838347637E+02  0.44126957841E+01 -0.56372242782E+03  0.66764852213E+03  0.35000000000E+03 0.  0.
 -1000006    1    1    2    0  503  0.33391778335E+02 -0.30644747665E+02 -0.12370790030E+04  0.12864363844E+04  0.35000000000E+03 0.  0.
       21    1    1    2  504  502  0.40446569302E+02  0.26232051881E+02 -0.40935386718E+02  0.63243587817E+02  0.00000000000E+00 0. -1.
<scales pt_clust_1="13000.00000" pt_clust_2="13000.00000" pt_clust_3="48.20836"></scales>
<clustering>
<clus scale="   48.208">  1  5  2 -1</clus>
<clus scale="  353.761">  1  3  2 -1</clus>
<clus scale="  353.761">  1  3  2 -1</clus>
</clustering>
</event>
<event>
 6   2  0.3464723E-02  0.4385188E+03  0.7816531E-02  0.1031202E+00
        1   -1    0    0  502    0  0.00000000000E+00  0.00000000000E+00  0.18375107339E+04  0.18375107339E+04  0.00000000000E+00 0. -1.
        2   -1    0    0  501    0  0.00000000000E+00  0.00000000000E+00 -0.58370144275E+03  0.58370144275E+03  0.00000000000E+00 0.  1.
  1000006    1    1    2  501    0 -0.72092486082E+02  0.27787771105E+03  0.72245136774E+02  0.45840234362E+03  0.35000000000E+03 0.  0.
 -1000006    1    1    2    0  503  0.12323536105E+03 -0.24825110880E+03  0.10325505250E+04  0.11249338442E+04  0.35000000000E+03 0.  0.
        2    1    1    2  502    0 -0.75148816096E+02 -0.67002345252E+02 -0.33603700035E+03  0.35079555931E+03  0.00000000000E+00 0.  1.
        1    1    1    2  503    0  0.24005941123E+02  0.37375742998E+02  0.48505062971E+03  0.48708042945E+03  0.00000000000E+00 0. -1.
<scales pt_clust_1="13000.00000" pt_clust_2="13000.00000" pt_clust_3="100.44734" pt_clust_4="44.42107"></scales>
<clustering>
<clus scale="   44.421">  1  6  2 -1</clus>
<clus scale="  100.447">  2  5  1 -1</clus>
<clus scale="  438.519">  2  3  1 -1</clus>
<clus scale="  438.519">  2  3  1 -1</clus>
</clustering>
</event>
<event>
 6   2  0.3464723E-02  0.3545017E+03  0.7816531E-02  0.1060782E+00
        2   -1    0    0  504    0  0.00000000000E+00  0.00000000000E+00  0.12516000007E+04  0.12516000007E+04  0.00000000000E+00 0.  1.
       21   -1    0    0  502  503  0.00000000000E+00  0.00000000000E+00 -0.10566770287E+04  0.10566770287E+04  0.00000000000E+00 0. -1.
  1000006    1    1    2  501    0  0.12122875455E+03 -0.11127457727E+03 -0.13518130730E+03  0.40969797207E+03  0.35000000000E+03 0.  0.
 -1000006    1    1    2    0  503 -0.26707990687E+02  0.55655547578E+01 -0.73079222150E+03  0.81074136639E+03  0.35000000000E+03 0.  0.
       21    1    1    2  504  501 -0.23086821441E+02 -0.19991162816E+02  0.19020967083E+02  0.35978397737E+02  0.00000000000E+00 0.  1.
        2    1    1    2  502    0 -0.71433942424E+02  0.12570018533E+03  0.10418755337E+04  0.10518592931E+04  0.00000000000E+00 0.  1.
<scales pt_clust_1="13000.00000" pt_clust_2="13000.00000" pt_clust_3="30.53928" pt_clust_4="141.80325"></scales>
<clustering>
<clus scale="   30.539">  1  5  2 -1</clus>
<clus scale="  141.803">  1  6  2 -1</clus>
<clus scale="  354.502">  2  4  1 -1</clus>
<clus scale="  354.502">  2  3  1 -1</clus>
</clustering>
</event>
<event>
 6   2  0.3464723E-02  0.5913839E+03  0.7816531E-02  0.9923445E-01
       21   -1    0    0  504  503  0.00000000000E+00  0.00000000000E+00  0.16539652970E+04  0.16539652970E+04  0.00000000000E+00 0. -1.
        2   -1    0    0  501    0  0.00000000000E+00  0.00000000000E+00 -0.93301042280E+03  0.93301042280E+03  0.00000000000E+00 0.  1.
  1000006    1    1    2  501    0 -0.13733680369E+03  0.41116730098E+03 -0.26806188529E+03  0.61828563091E+03  0.35000000000E+03 0.  0.
 -1000006    1    1    2    0  503  0.14576679148E+01 -0.74906377755E+03  0.57403423903E+03  0.10065356304E+04  0.35000000000E+03 0.  0.
       21    1    1    2  504  502  0.95429917853E+02  0.34602545128E+03  0.63978487939E+03  0.73359741961E+03  0.00000000000E+00 0. -1.
        2    1    1    2  502    0  0.40449217922E+02 -0.81289747096E+01 -0.22480235893E+03  0.22855703892E+03  0.00000000000E+00 0.  1.
<scales pt_clust_1="13000.00000" pt_clust_2="13000.00000" pt_clust_3="359.14771" pt_clust_4="41.25796"></scales>
<clustering>
<clus scale="   41.258">  2  6  1 -1</clus>
<clus scale="  359.148">  1  5  2 -1</clus>
<clus scale="  591.384">  1  4  2 -1</clus>
<clus scale="  591.384">  1  3  2 -1</clus>
</clustering>
</event>
<event>
 6   2  0.3464723E-02  0.8489768E+03  0.7816531E-02  0.9614928E-01
       21   -1    0    0  501  502  0.00000000000E+00  0.00000000000E+00  0.11400912643E+04  0.11400912643E+04  0.00000000000E+00 0.  1.
       21   -1    0    0  502  503  0.00000000000E+00  0.00000000000E+00 -0.16404496137E+04  0.16404496137E+04  0.00000000000E+00 0.  1.
  1000006    1    1    2  501    0  0.42880981327E+03 -0.30211021596E+02  0.50238364817E+03  0.74811756545E+03  0.35000000000E+03 0.  0.
 -1000006    1    1    2    0  504  0.21656028317E+03  0.61000127467E+03 -0.57147683855E+02  0.73808249479E+03  0.35000000000E+03 0.  0.
       21    1    1    2  504  505 -0.73922636135E+02 -0.15299393913E+02 -0.46332455282E+02  0.88573833607E+02  0.00000000000E+00 0.  1.
       21    1    1    2  505  503 -0.57144746031E+03 -0.56449085916E+03 -0.89926185843E+03  0.12057669841E+04  0.00000000000E+00 0.  1.
<scales pt_clust_1="13000.00000" pt_clust_2="13000.00000" pt_clust_3="51.76296" pt_clust_4="791.68921"></scales>
<clustering>
<clus scale="   51.763">  5  6 -1 -1</clus>
<clus scale="  554.338">  1  3  2 -1</clus>
<clus scale="  791.689">  2  5  1 -1</clus>
<clus scale="  848.977">  1  3  2 -1</clus>
</clustering>
</event>
<event>
 5   1  0.3464723E-02  0.4047647E+03  0.7816531E-02  0.1042142E+00
       21   -1    0    0  501  502  0.00000000000E+00  0.00000000000E+00  0.17736025737E+03  0.17736025737E+03  0.00000000000E+00 0.  1.
       21   -1    0    0  504  503  0.00000000000E+00  0.00000000000E+00 -0.14929012953E+04  0.14929012953E+04  0.00000000000E+00 0.  1.
  1000006    1    1    2  501    0  0.20817218185E+03  0.38043476774E+02 -0.21687763666E+03  0.46294586369E+03  0.35000000000E+03 0.  0.
 -1000006    1    1    2    0  503 -0.17750218132E+03 -0.57194128535E+02 -0.68077544265E+03  0.78786635671E+03  0.35000000000E+03 0.  0.
       21    1    1    2  504  502 -0.30670000529E+02  0.19150651761E+02 -0.41788795866E+03  0.41944933233E+03  0.00000000000E+00 0. -1.
<scales pt_clust_1="13000.00000" pt_clust_2="13000.00000" pt_clust_3="36.15794"></scales>
<clustering>
<clus scale="   36.158">  2  5  1 -1</clus>
<clus scale="  404.765">  1  3  2 -1</clus>
<clus scale="  404.765">  1  3  2 -1</clus>
</clustering>
</event>
<event>
 6   2  0.3464723E-02  0.4359554E+03  0.7816531E-02  0.1031995E+00
       21   -1    0    0  505  502  0.00000000000E+00  0.00000000000E+00  0.86677069824E+03  0.86677069824E+03  0.00000000000E+00 0.  1.
       21   -1    0    0  504  503  0.00000000000E+00  0.00000000000E+00 -0.55953312955E+03  0.55953312955E+03  0.00000000000E+00 0. -1.
  1000006    1    1    2  501    0  0.22751591531E+03  0.12405916676E+03 -0.80654082897E+02  0.44289869007E+03  0.35000000000E+03 0.  0.
 -1000006    1    1    2    0  502 -0.26999277130E+03 -0.99870223529E+02  0.31544306192E+03  0.55215440179E+03  0.35000000000E+03 0.  0.
       21    1    1    2  504  501  0.43031460246E+01 -0.52724012455E+02 -0.17316035261E+03  0.18106033876E+03  0.00000000000E+00 0. -1.
       21    1    1    2  505  503  0.38173709972E+02  0.28535069225E+02  0.24560894228E+03  0.25019039717E+03  0.00000000000E+00 0.  1.
<scales pt_clust_1="13000.00000" pt_clust_2="13000.00000" pt_clust_3="52.73825" pt_clust_4="47.66007"></scales>
<clustering>
<clus scale="   47.660">  1  6  2 -1</clus>
<clus scale="   52.738">  2  5  1 -1</clus>
<clus scale="  435.955">  1  4  2 -1</clus>
<clus scale="  435.955">  1  3  2 -1</clus>
</clustering>
</event>
<event>
 4   0  0.3464723E-02  0.3709186E+03  0.7816531E-02  0.1054342E+00
       21   -1    0    0  503  502  0.00000000000E+00  0.00000000000E+00  0.47471308030E+03  0.47471308030E+03  0.00000000000E+00 0.  1.
       21   -1    0    0  501  503  0.00000000000E+00  0.00000000000E+00 -0.30421941088E+03  0.30421941088E+03  0.00000000000E+00 0.  1.
  1000006    1    1    2  501    0 -0.11339779472E+03 -0.47133489805E+02  0.51012974437E+00  0.37091897490E+03  0.35000000000E+03 0.  0.
 -1000006    1    1    2    0  502  0.11339779472E+03  0.47133489805E+02  0.16998353968E+03  0.40801351628E+03  0.35000000000E+03 0.  0.
<scales pt_clust_1="13000.00000" pt_clust_2="13000.00000"></scales>
<clustering>
<clus scale="  370.919">  2  3  1 -1</clus>
<clus scale="  370.919">  1  3  2 -1</clus>
</clustering>
</event>
<event>
 5   1  0.3464723E-02  0.3840386E+03  0.7816531E-02  0.1049451E+00
       21   -1    0    0  504  502  0.00000000000E+00  0.00000000000E+00  0.36128981573E+03  0.36128981573E+03  0.00000000000E+00 0. -1.
       21   -1    0    0  501  503  0.00000000000E+00  0.00000000000E+00 -0.53471687159E+03  0.53471687159E+03  0.00000000000E+00 0. -1.
  1000006    1    1    2  501    0 -0.35415966035E+02  0.18324316483E+03 -0.17151251412E+03  0.43214452514E+03  0.35000000000E+03 0.  0.
 -1000006    1    1    2    0  502  0.17471512923E+02 -0.14203856630E+03  0.64581790602E+02  0.38360267955E+03  0.35000000000E+03 0.  0.
       21    1    1    2  504  503  0.17944453112E+02 -0.41204598533E+02 -0.66496332339E+02  0.80259482632E+02  0.00000000000E+00 0.  1.
<scales pt_clust_1="13000.00000" pt_clust_2="13000.00000" pt_clust_3="44.94243"></scales>
<clustering>
<clus scale="   44.942">  2  5  1 -1</clus>
<clus scale="  384.039">  2  3  1 -1</clus>
<clus scale="  384.039">  1  3  2 -1</clus>
</clustering>
</event>
<event>
 5   1  0.3464723E-02  0.5374271E+03  0.7816531E-02  0.1004447E+00
       21   -1    0    0  503  502  0.00000000000E+00  0.00000000000E+00  0.10547905627E+04  0.10547905627E+04  0.00000000000E+00 0.  1.
       21   -1    0    0  504  503  0.00000000000E+00  0.00000000000E+00 -0.39882618544E+03  0.39882618544E+03  0.00000000000E+00 0. -1.
  1000006    1    1    2  501    0 -0.36415486058E+03  0.16159832583E+03  0.35906037965E+03  0.64042730863E+03  0.35000000000E+03 0.  0.
 -1000006    1    1    2    0  502  0.41471293196E+03 -0.80571820456E+02  0.39519934553E+03  0.67613693650E+03  0.35000000000E+03 0.  0.
       21    1    1    2  504  501 -0.50558071383E+02 -0.81026505376E+02 -0.98295347932E+02  0.13705250301E+03  0.00000000000E+00 0. -1.
<scales pt_clust_1="13000.00000" pt_clust_2="13000.00000" pt_clust_3="95.50609"></scales>
<clustering>
<clus scale="   95.506">  2  5  1 -1</clus>
<clus scale="  537.427">  2  3  1 -1</clus>
<clus scale="  537.427">  1  3  2 -1</clus>
</clustering>
</event>
<event>
 6   2  0.3464723E-02  0.4095948E+03  0.7816531E-02  0.1040507E+00
        2   -1    0    0  503    0  0.00000000000E+00  0.00000000000E+00  0.11092262392E+04  0.11092262392E+04  0.00000000000E+00 0. -1.
       21   -1    0    0  504  503  0.00000000000E+00  0.00000000000E+00 -0.48852842913E+03  0.48852842913E+03  0.00000000000E+00 0. -1.
  1000006    1    1    2  501    0  0.11551748509E+03  0.15704569644E+03 -0.52466719968E+02  0.40405494284E+03  0.35000000000E+03 0.  0.
 -1000006    1    1    2    0  502  0.40407485555E+02 -0.26418454334E+03  0.21218450564E+03  0.48882359012E+03  0.35000000000E+03 0.  0.
       21    1    1    2  504  501  0.22750794112E+02  0.28193053177E+02 -0.10238551525E+03  0.10860589585E+03  0.00000000000E+00 0. -1.
        2    1    1    2  502    0 -0.17867576476E+03  0.78945793720E+02  0.56336553970E+03  0.59627023955E+03  0.00000000000E+00 0. -1.
<scales pt_clust_1="13000.00000" pt_clust_2="13000.00000" pt_clust_3="36.22771" pt_clust_4="194.94072"></scales>
<clustering>
<clus scale="   36.228">  2  5  1 -1</clus>
<clus scale="  194.941">  1  6  2 -1</clus>
<clus scale="  409.595">  2  3  1 -1</clus>
<clus scale="  409.595">  2  3  1 -1</clus>
</clustering>
</event>
<event>
 6   2  0.3464723E-02  0.4028849E+03  0.7816531E-02  0.1042785E+00
       21   -1    0    0  501  503  0.00000000000E+00  0.00000000000E+00  0.18498514719E+03  0.18498514719E+03  0.00000000000E+00 0.  1.
        2   -1    0    0  504    0  0.00000000000E+00  0.00000000000E+00 -0.29649640757E+04  0.29649640757E+04  0.00000000000E+00 0.  1.
  1000006    1    1    2  501    0  0.23026418553E+03 -0.16782424661E+03 -0.40160588053E+03  0.60413066150E+03  0.35000000000E+03 0.  0.
 -1000006    1    1    2    0  502 -0.39591546137E+02  0.91908992234E+02 -0.59354384572E+03  0.69628230638E+03  0.35000000000E+03 0.  0.
       21    1    1    2  504  503 -0.29403977101E+02 -0.43440512140E+02  0.10061796288E+01  0.52466030552E+02  0.00000000000E+00 0. -1.
        2    1    1    2  502    0 -0.16126866229E+03  0.11935576651E+03 -0.17858353819E+04  0.17970702244E+04  0.00000000000E+00 0.  1.
<scales pt_clust_1="13000.00000" pt_clust_2="13000.00000" pt_clust_3="52.45638" pt_clust_4="200.56271"></scales>
<clustering>
<clus scale="   52.456">  1  5  2 -1</clus>
<clus scale="  200.563">  2  6  1 -1</clus>
<clus scale="  402.885">  2  4  1 -1</clus>
<clus scale="  402.885">  1  3  2 -1</clus>
</clustering>
</event>
<event>
 6   2  0.3464723E-02  0.5404083E+03  0.7816531E-02  0.1016632E+00
       21   -1    0    0  504  503  0.00000000000E+00  0.00000000000E+00  0.82392621127E+03  0.82392621127E+03  0.00000000000E+00 0.  1.
        1   -1    0    0  503    0  0.00000000000E+00  0.00000000000E+00 -0.14766203714E+04  0.14766203714E+04  0.00000000000E+00 0.  1.
  1000006    1    1    2  501    0  0.96374932204E+00  0.80204188768E+02  0.26996167048E+03  0.44923595608E+03  0.35000000000E+03 0.  0.
 -1000006    1    1    2    0  502  0.38741464788E+03 -0.27245176917E+03 -0.11191998420E+03  0.59945488469E+03  0.35000000000E+03 0.  0.
       21    1    1    2  504  501 -0.20761283389E+02  0.27309668351E+02  0.17951860252E+03  0.18276700338E+03  0.00000000000E+00 0.  1.
        1    1    1    2  502    0 -0.36761711381E+03  0.16493791205E+03 -0.99025444889E+03  0.10690887385E+04  0.00000000000E+00 0.  1.
<scales pt_clust_1="13000.00000" pt_clust_2="13000.00000" pt_clust_3="34.30523" pt_clust_4="411.75368"></scales>
<clustering>
<clus scale="   34.305">  1  5  2 -1</clus>
<clus scale="  362.947">  1  3  2 -1</clus>
<clus scale="  411.754">  2  6  1 -1</clus>
<clus scale="  540.408">  1  3  2 -1</clus>
</clustering>
</event>
<event>
 5   1  0.3464723E-02  0.5382099E+03  0.7816531E-02  0.1004260E+00
       21   -1    0    0  502  503  0.00000000000E+00  0.00000000000E+00  0.46539557806E+03  0.46539557806E+03  0.00000000000E+00 0. -1.
        2   -1    0    0  501    0  0.00000000000E+00  0.00000000000E+00 -0.15871253706E+04  0.15871253706E+04  0.00000000000E+00 0.  1.
  1000006    1    1    2  501    0 -0.29145824897E+03  0.33907397775E+03 -0.91032065621E+02  0.57507035244E+03  0.35000000000E+03 0.  0.
 -1000006    1    1    2    0  503  0.22149207135E+03 -0.30303907450E+03 -0.75176122993E+02  0.51869342373E+03  0.35000000000E+03 0.  0.
        2    1    1    2  502    0  0.69966177616E+02 -0.36034903251E+02 -0.95552160391E+03  0.95875717249E+03  0.00000000000E+00 0.  1.
<scales pt_clust_1="13000.00000" pt_clust_2="13000.00000" pt_clust_3="78.70057"></scales>
<clustering>
<clus scale="   78.701">  2  5  1 -1</clus>
<clus scale="  538.210">  1  4  2 -1</clus>
<clus scale="  538.210">  1  3  2 -1</clus>
</clustering>
</event>
<event>
 4   0  0.3464723E-02  0.3679242E+03  0.7816531E-02  0.1055490E+00
       21   -1    0    0  503  502  0.00000000000E+00  0.00000000000E+00  0.23659540502E+04  0.23659540502E+04  0.00000000000E+00 0. -1.
       21   -1    0    0  501  503  0.00000000000E+00  0.00000000000E+00 -0.58180140342E+02  0.58180140342E+02  0.00000000000E+00 0. -1.
  1000006    1    1    2  501    0 -0.99289576092E+02 -0.54861670639E+02  0.99778112499E+03  0.10634544636E+04  0.35000000000E+03 0.  0.
 -1000006    1    1    2    0  502  0.99289576092E+02  0.54861670639E+02  0.13099927848E+04  0.13606797269E+04  0.35000000000E+03 0.  0.
<scales pt_clust_1="13000.00000" pt_clust_2="13000.00000"></scales>
<clustering>
<clus scale="  367.924">  2  3  1 -1</clus>
<clus scale="  367.924">  1  3  2 -1</clus>
</clustering>
</event>
<event>
 5   1  0.3464723E-02  0.3806931E+03  0.7816531E-02  0.1050678E+00
       21   -1    0    0  504  502  0.00000000000E+00  0.00000000000E+00  0.35113477170E+03  0.35113477170E+03  0.00000000000E+00 0.  1.
       21   -1    0    0  501  503  0.00000000000E+00  0.00000000000E+00 -0.52404945412E+03  0.52404945412E+03  0.00000000000E+00 0.  1.
  1000006    1    1    2  501    0  0.10577264412E+02  0.12335458488E+03 -0.75101338523E+02  0.37877228407E+03  0.35000000000E+03 0.  0.
 -1000006    1    1    2    0  502 -0.93987985624E+02 -0.15894003816E+03 -0.86028748445E+02  0.40496496482E+03  0.35000000000E+03 0.  0.
       21    1    1    2  504  503  0.83410721212E+02  0.35585453281E+02 -0.11784595454E+02  0.91446976923E+02  0.00000000000E+00 0.  1.
<scales pt_clust_1="13000.00000" pt_clust_2="13000.00000" pt_clust_3="90.68447"></scales>
<clustering>
<clus scale="   90.684">  1  5  2 -1</clus>
<clus scale="  380.693">  1  4  2 -1</clus>
<clus scale="  380.693">  1  3  2 -1</clus>
</clustering>
</event>
<event>
 6   2  0.3464723E-02  0.3568530E+03  0.7816531E-02  0.1059837E+00
       21   -1    0    0  501  502  0.00000000000E+00  0.00000000000E+00  0.22377914224E+03  0.22377914224E+03  0.00000000000E+00 0.  1.
       21   -1    0    0  505  503  0.00000000000E+00  0.00000000000E+00 -0.13847947098E+04  0.13847947098E+04  0.00000000000E+00 0.  1.
  1000006    1    1    2  501    0 -0.15766985530E+02  0.20515599937E+02 -0.95111208964E+02  0.36361467207E+03  0.35000000000E+03 0.  0.
 -1000006    1    1    2    0  503  0.19796734350E+03 -0.68797318092E+02 -0.62412272842E+03  0.74562277339E+03  0.35000000000E+03 0.  0.
       21    1    1    2  504  502 -0.17967348492E+03  0.78920799863E+02 -0.33530753031E+03  0.38851279736E+03  0.00000000000E+00 0.  1.
       21    1    1    2  505  504 -0.25268730504E+01 -0.30639081708E+02 -0.10647409983E+03  0.11082360917E+03  0.00000000000E+00 0. -1.
<scales pt_clust_1="13000.00000" pt_clust_2="13000.00000" pt_clust_3="193.57963" pt_clust_4="30.74310"></scales>
<clustering>
<clus scale="   30.743">  2  6  1 -1</clus>
<clus scale="  193.580">  2  5  1 -1</clus>
<clus scale="  356.853">  1  3  2 -1</clus>
<clus scale="  356.853">  1  3  2 -1</clus>
</clustering>
</event>
<event>
 4   0  0.3464723E-02  0.3777834E+03  0.7816531E-02  0.1051756E+00
       21   -1    0    0  501  502  0.00000000000E+00  0.00000000000E+00  0.72805222997E+03  0.72805222997E+03  0.00000000000E+00 0.  1.
       21   -1    0    0  502  503  0.00000000000E+00  0.00000000000E+00 -0.19955301172E+03  0.19955301172E+03  0.00000000000E+00 0.  1.
  1000006    1    1    2  501    0  0.22833254888E+02  0.14035290839E+03  0.32587258411E+03  0.49891205387E+03  0.35000000000E+03 0.  0.
 -1000006    1    1    2    0  503 -0.22833254888E+02 -0.14035290839E+03  0.20262663414E+03  0.42869318782E+03  0.35000000000E+03 0.  0.
<scales pt_clust_1="13000.00000" pt_clust_2="13000.00000"></scales>
<clustering>
<clus scale="  377.783">  1  3  2 -1</clus>
<clus scale="  377.783">  1  3  2 -1</clus>
</clustering>
</event>
<event>
 5   1  0.3464723E-02  0.3723356E+03  0.7816531E-02  0.1053803E+00
       21   -1    0    0  502  503  0.00000000000E+00  0.00000000000E+00  0.10560357127E+03  0.10560357127E+03  0.00000000000E+00 0.  1.
        1   -1    0    0  501    0  0.00000000000E+00  0.00000000000E+00 -0.32100271587E+04  0.32100271587E+04  0.00000000000E+00 0.  1.
  1000006    1    1    2  501    0  0.69636351704E+02  0.86545249567E+02 -0.12262639103E+04  0.12800634670E+04  0.35000000000E+03 0.  0.
 -1000006    1    1    2    0  503 -0.11145004398E+03 -0.74614448504E+02 -0.36964975453E+03  0.52643078297E+03  0.35000000000E+03 0.  0.
        1    1    1    2  502    0  0.41813692279E+02 -0.11930801064E+02 -0.15085099225E+04  0.15091364800E+04  0.00000000000E+00 0.  1.
<scales pt_clust_1="13000.00000" pt_clust_2="13000.00000" pt_clust_3="43.48251"></scales>
<clustering>
<clus scale="   43.483">  2  5  1 -1</clus>
<clus scale="  372.336">  2  3  1 -1</clus>
<clus scale="  372.336">  1  3  2 -1</clus>
</clustering>
</event>
<event>
 5   1  0.3464723E-02  0.8762960E+03  0.7816531E-02  0.9684776E-01
        2   -1    0    0  503    0  0.00000000000E+00  0.00000000000E+00  0.29988942528E+04  0.29988942528E+04  0.00000000000E+00 0. -1.
       21   -1    0    0  501  503  0.00000000000E+00  0.00000000000E+00 -0.84923462444E+03  0.84923462444E+03  0.00000000000E+00 0. -1.
  1000006    1    1    2  501    0  0.17025274861E+03 -0.82366987897E+02  0.18765897426E+03  0.43987067386E+03  0.35000000000E+03 0.  0.
 -1000006    1    1    2    0  502  0.64518961684E+03 -0.42637747993E+01 -0.44978950611E+03  0.86087073435E+03  0.35000000000E+03 0.  0.
        2    1    1    2  502    0 -0.81544236546E+03  0.86630762696E+02  0.24117901603E+04  0.25473874691E+04  0.00000000000E+00 0. -1.
<scales pt_clust_1="13000.00000" pt_clust_2="13000.00000" pt_clust_3="803.36458"></scales>
<clustering>
<clus scale="  397.832">  2  3  1 -1</clus>
<clus scale="  803.365">  1  5  2 -1</clus>
<clus scale="  876.296">  2  3  1 -1</clus>
</clustering>
</event>
<event>
 5   1  0.3464723E-02  0.4653315E+03  0.7816531E-02  0.1023246E+00
       21   -1    0    0  504  502  0.00000000000E+00  0.00000000000E+00  0.18882223754E+03  0.18882223754E+03  0.00000000000E+00 0.  1.
       21   -1    0    0  502  503  0.00000000000E+00  0.00000000000E+00 -0.14503447243E+04  0.14503447243E+04  0.00000000000E+00 0. -1.
  1000006    1    1    2  501    0 -0.16764592824E+03 -0.27747603738E+03 -0.33071499057E+03  0.58049161369E+03  0.35000000000E+03 0.  0.
 -1000006    1    1    2    0  503  0.17902014917E+03  0.23978721713E+03 -0.88941441053E+03  0.10015508559E+04  0.35000000000E+03 0.  0.
       21    1    1    2  504  501 -0.11374220926E+02  0.37688820256E+02 -0.41393085643E+02  0.57124492235E+02  0.00000000000E+00 0.  1.
<scales pt_clust_1="13000.00000" pt_clust_2="13000.00000" pt_clust_3="39.36775"></scales>
<clustering>
<clus scale="   39.368">  1  5  2 -1</clus>
<clus scale="  465.331">  2  4  1 -1</clus>
<clus scale="  465.331">  1  3  2 -1</clus>
</clustering>
</event>
<event>
 4   0  0.3464723E-02  0.3760038E+03  0.7816531E-02  0.1052421E+00
       21   -1    0    0  501  502  0.00000000000E+00  0.00000000000E+00  0.13458916383E+04  0.13458916383E+04  0.00000000000E+00 0.  1.
       21   -1    0    0  502  503  0.00000000000E+00  0.00000000000E+00 -0.11325217099E+03  0.11325217099E+03  0.00000000000E+00 0.  1.
  1000006    1    1    2  501    0  0.28801263416E+02 -0.13434786936E+03  0.81272265829E+03  0.89548700832E+03  0.35000000000E+03 0.  0.
 -1000006    1    1    2    0  503 -0.28801263416E+02  0.13434786936E+03  0.41991680898E+03  0.56365680093E+03  0.35000000000E+03 0.  0.
<scales pt_clust_1="13000.00000" pt_clust_2="13000.00000"></scales>
<clustering>
<clus scale="  376.004">  1  3  2 -1</clus>
<clus scale="  376.004">  1  3  2 -1</clus>
</clustering>
</event>
<event>
 6   2  0.3464723E-02  0.4918817E+03  0.7816531E-02  0.1015920E+00
       21   -1    0    0  502  503  0.00000000000E+00  0.00000000000E+00  0.17732850470E+03  0.17732850470E+03  0.00000000000E+00 0.  1.
        2   -1    0    0  501    0  0.00000000000E+00  0.00000000000E+00 -0.24047332117E+04  0.24047332117E+04  0.00000000000E+00 0.  1.
  1000006    1    1    2  501    0 -0.35555401261E+03  0.14705453817E+03 -0.11933536683E+04  0.13017821134E+04  0.35000000000E+03 0.  0.
 -1000006    1    1    2    0  504  0.31088521636E+03 -0.59317543253E+02 -0.49622683232E+03  0.68476949246E+03  0.35000000000E+03 0.  0.
       21    1    1    2  504  503  0.30075244629E+02  0.99311275651E+01  0.14208924078E+02  0.34713702737E+02  0.00000000000E+00 0.  1.
        2    1    1    2  502    0  0.14593551620E+02 -0.97668122480E+02 -0.55203313049E+03  0.56079640785E+03  0.00000000000E+00 0.  1.
<scales pt_clust_1="13000.00000" pt_clust_2="13000.00000" pt_clust_3="31.67251" pt_clust_4="98.60231"></scales>
<clustering>
<clus scale="   31.673">  1  5  2 -1</clus>
<clus scale="   98.602">  2  6  1 -1</clus>
<clus scale="  491.882">  1  4  2 -1</clus>
<clus scale="  491.882">  1  3  2 -1</clus>
</clustering>
</event>
<event>
 5   1  0.3464723E-02  0.4116068E+03  0.7816531E-02  0.1039833E+00
       21   -1    0    0  501  502  0.00000000000E+00  0.00000000000E+00  0.14701075241E+03  0.14701075241E+03  0.00000000000E+00 0. -1.
       21   -1    0    0  504  503  0.00000000000E+00  0.00000000000E+00 -0.16470626805E+04  0.16470626805E+04  0.00000000000E+00 0. -1.
  1000006    1    1    2  501    0 -0.23478680274E+03  0.38931381757E+02 -0.35338560539E+03  0.55138179270E+03  0.35000000000E+03 0.  0.
 -1000006    1    1    2    0  503  0.20304484745E+03 -0.50102539306E+02 -0.11366777939E+04  0.12075901133E+04  0.35000000000E+03 0.  0.
       21    1    1    2  504  502  0.31741955284E+02  0.11171157549E+02 -0.99885288071E+01  0.35101526946E+02  0.00000000000E+00 0.  1.
<scales pt_clust_1="13000.00000" pt_clust_2="13000.00000" pt_clust_3="33.65036"></scales>
<clustering>
<clus scale="   33.650">  1  5  2 -1</clus>
<clus scale="  411.607">  1  3  2 -1</clus>
<clus scale="  411.607">  1  3  2 -1</clus>
</clustering>
</event>
<event>
 4   0  0.3464723E-02  0.6821306E+03  0.7816531E-02  0.9748289E-01
       21   -1    0    0  503  502  0.00000000000E+00  0.00000000000E+00  0.82782764937E+03  0.82782764937E+03  0.00000000000E+00 0.  1.
       21   -1    0    0  501  503  0.00000000000E+00  0.00000000000E+00 -0.57136218386E+03  0.57136218386E+03  0.00000000000E+00 0. -1.
  1000006    1    1    2  501    0 -0.19290957054E+03 -0.55280016735E+03  0.39044520383E+02  0.68324710171E+03  0.35000000000E+03 0.  0.
 -1000006    1    1    2    0  502  0.19290957054E+03  0.55280016735E+03  0.21742094513E+03  0.71594273151E+03  0.35000000000E+03 0.  0.
<scales pt_clust_1="13000.00000" pt_clust_2="13000.00000"></scales>
<clustering>
<clus scale="  682.131">  2  3  1 -1</clus>
<clus scale="  682.131">  1  3  2 -1</clus>
</clustering>
</event>
<event>
 5   1  0.3464723E-02  0.4299505E+03  0.7816531E-02  0.1033876E+00
       21   -1    0    0  501  502  0.00000000000E+00  0.00000000000E+00  0.71171450090E+03  0.71171450090E+03  0.00000000000E+00 0.  1.
       21   -1    0    0  502  503  0.00000000000E+00  0.00000000000E+00 -0.35126280986E+03  0.35126280986E+03  0.00000000000E+00 0.  1.
  1000006    1    1    2  501    0  0.22108771444E+03 -0.75333538322E+02  0.25897852389E+03  0.49408986562E+03  0.35000000000E+03 0.  0.
 -1000006    1    1    2    0  504 -0.26567047299E+03  0.55111758037E+02  0.17862109097E+03  0.47751816744E+03  0.35000000000E+03 0.  0.
       21    1    1    2  504  503  0.44582758551E+02  0.20221780284E+02 -0.77147923819E+02  0.91369277700E+02  0.00000000000E+00 0.  1.
<scales pt_clust_1="13000.00000" pt_clust_2="13000.00000" pt_clust_3="48.95450"></scales>
<clustering>
<clus scale="   48.954">  2  5  1 -1</clus>
<clus scale="  429.950">  1  3  2 -1</clus>
<clus scale="  429.950">  1  3  2 -1</clus>
</clustering>
</event>
<event>
 4   0  0.3464723E-02  0.3508912E+03  0.7816531E-02  0.1062250E+00
       21   -1    0    0  503  502  0.00000000000E+00  0.00000000000E+00  0.36212703775E+03  0.36212703775E+03  0.00000000000E+00 0. -1.
       21   -1    0    0  501  503  0.00000000000E+00  0.00000000000E+00 -0.41401489483E+03  0.41401489483E+03  0.00000000000E+00 0. -1.
  1000006    1    1    2  501    0  0.12623664423E+02  0.21570779319E+02 -0.19002212837E+03  0.39904017930E+03  0.35000000000E+03 0.  0.
 -1000006    1    1    2    0  502 -0.12623664423E+02 -0.21570779319E+02  0.13813427130E+03  0.37710175328E+03  0.35000000000E+03 0.  0.
<scales pt_clust_1="13000.00000" pt_clust_2="13000.00000"></scales>
<clustering>
<clus scale="  350.891">  2  3  1 -1</clus>
<clus scale="  350.891">  1  3  2 -1</clus>
</clustering>
</event>
<event>
 6   2  0.3464723E-02  0.4010243E+03  0.7816531E-02  0.1043426E+00
       21   -1    0    0  504  502  0.00000000000E+00  0.00000000000E+00  0.35189193989E+03  0.35189193989E+03  0.00000000000E+00 0. -1.
       21   -1    0    0  501  503  0.00000000000E+00  0.00000000000E+00 -0.83547824002E+03  0.83547824002E+03  0.00000000000E+00 0. -1.
  1000006    1    1    2  501    0  0.16353908979E+03 -0.42910464234E+02 -0.39133028842E+03  0.55156662015E+03  0.35000000000E+03 0.  0.
 -1000006    1    1    2    0  502 -0.22239156369E+03  0.90143504627E+02 -0.21783290618E+03  0.47700632495E+03  0.35000000000E+03 0.  0.
       21    1    1    2  504  505  0.43908433592E+02 -0.14588777911E+01  0.85590841592E+02  0.96207437495E+02  0.00000000000E+00 0. -1.
       21    1    1    2  505  503  0.14944040308E+02 -0.45774162602E+02  0.39986052878E+02  0.62589797311E+02  0.00000000000E+00 0.  1.
<scales pt_clust_1="13000.00000" pt_clust_2="13000.00000" pt_clust_3="43.93266" pt_clust_4="51.74230"></scales>
<clustering>
<clus scale="   43.933">  1  5  2 -1</clus>
<clus scale="   51.742">  1  6  2 -1</clus>
<clus scale="  401.024">  2  3  1 -1</clus>
<clus scale="  401.024">  1  3  2 -1</clus>
</clustering>
</event>
<event>
 5   1  0.3464723E-02  0.4753067E+03  0.7816531E-02  0.1020433E+00
       21   -1    0    0  501  502  0.00000000000E+00  0.00000000000E+00  0.13746694740E+03  0.13746694740E+03  0.00000000000E+00 0.  1.
       21   -1    0    0  502  503  0.00000000000E+00  0.00000000000E+00 -0.28718467565E+04  0.28718467565E+04  0.00000000000E+00 0. -1.
  1000006    1    1    2  501    0 -0.11418980527E+03 -0.36757848588E+03 -0.69637950619E+03  0.86925121314E+03  0.35000000000E+03 0.  0.
 -1000006    1    1    2    0  504  0.13740302462E+03  0.20367842351E+03 -0.98062935961E+03  0.10698123351E+04  0.35000000000E+03 0.  0.
       21    1    1    2  504  503 -0.23213219353E+02  0.16390006237E+03 -0.10573709433E+04  0.10702501556E+04  0.00000000000E+00 0. -1.
<scales pt_clust_1="13000.00000" pt_clust_2="13000.00000" pt_clust_3="165.53575"></scales>
<clustering>
<clus scale="  165.536">  2  5  1 -1</clus>
<clus scale="  475.307">  2  4  1 -1</clus>
<clus scale="  475.307">  1  3  2 -1</clus>
</clustering>
</event>
<event>
 6   2  0.3464723E-02  0.3911881E+03  0.7816531E-02  0.1046874E+00
       21   -1    0    0  505  502  0.00000000000E+00  0.00000000000E+00  0.36625693811E+03  0.36625693811E+03  0.00000000000E+00 0.  1.
       21   -1    0    0  501  503  0.00000000000E+00  0.00000000000E+00 -0.87247747543E+03  0.87247747543E+03  0.00000000000E+00 0.  1.
  1000006    1    1    2  501    0  0.20448810930E+03  0.42607615767E+01 -0.47139340934E+03  0.62172766329E+03  0.35000000000E+03 0.  0.
 -1000006    1    1    2    0  504 -0.13688870789E+03 -0.12319171709E+03  0.49461121923E+02  0.39857385776E+03  0.35000000000E+03 0.  0.
       21    1    1    2  504  502 -0.31863103780E+02  0.11252111547E+03  0.10023312002E+02  0.11737429698E+03  0.00000000000E+00 0.  1.
       21    1    1    2  505  503 -0.35736297631E+02  0.64098400421E+01 -0.94311561910E+02  0.10105859552E+03  0.00000000000E+00 0.  1.
<scales pt_clust_1="13000.00000" pt_clust_2="13000.00000" pt_clust_3="118.06898" pt_clust_4="36.30660"></scales>
<clustering>
<clus scale="   36.307">  2  6  1 -1</clus>
<clus scale="  118.069">  1  5  2 -1</clus>
<clus scale="  391.188">  2  3  1 -1</clus>
<clus scale="  391.188">  1  3  2 -1</clus>
</clustering>
</event>
<event>
 5   1  0.3464723E-02  0.3706955E+03  0.7816531E-02  0.1054427E+00
       21   -1    0    0  504  502  0.00000000000E+00  0.00000000000E+00  0.13226922578E+04  0.13226922578E+04  0.00000000000E+00 0. -1.
       21   -1    0    0  501  503  0.00000000000E+00  0.00000000000E+00 -0.40502119380E+03  0.40502119380E+03  0.00000000000E+00 0. -1.
  1000006    1    1    2  501    0 -0.17906146173E+03 -0.93423477572E+02 -0.49192789275E+02  0.40707601717E+03  0.35000000000E+03 0.  0.
 -1000006    1    1    2    0  502 -0.30772946948E+02  0.91333139601E+02  0.34173430232E+02  0.36463206111E+03  0.35000000000E+03 0.  0.
       21    1    1    2  504  503  0.20983440868E+03  0.20903379704E+01  0.93269042308E+03  0.95600537336E+03  0.00000000000E+00 0. -1.
<scales pt_clust_1="13000.00000" pt_clust_2="13000.00000" pt_clust_3="209.84482"></scales>
<clustering>
<clus scale="  209.845">  1  5  2 -1</clus>
<clus scale="  370.695">  1  4  2 -1</clus>
<clus scale="  370.695">  1  3  2 -1</clus>
</clustering>
</event>
<event>
 5   1  0.3464723E-02  0.3863635E+03  0.7816531E-02  0.1048607E+00
       21   -1    0    0  501  503  0.00000000000E+00  0.00000000000E+00  0.34677646275E+03  0.34677646275E+03  0.00000000000E+00 0.  1.
        2   -1    0    0  503    0  0.00000000000E+00  0.00000000000E+00 -0.93940903233E+03  0.93940903233E+03  0.00000000000E+00 0. -1.
  1000006    1    1    2  501    0 -0.13905108266E+03 -0.71601680408E+02  0.68170674767E+02  0.38937031875E+03  0.35000000000E+03 0.  0.
 -1000006    1    1    2    0  502  0.14212220357E+03  0.11148296028E+03 -0.21403756191E+03  0.44826247790E+03  0.35000000000E+03 0.  0.
        2    1    1    2  502    0 -0.30711209046E+01 -0.39881279876E+02 -0.44676568244E+03  0.44855269843E+03  0.00000000000E+00 0. -1.
<scales pt_clust_1="13000.00000" pt_clust_2="13000.00000" pt_clust_3="39.99935"></scales>
<clustering>
<clus scale="   39.999">  2  5  1 -1</clus>
<clus scale="  386.364">  1  3  2 -1</clus>
<clus scale="  386.364">  1  3  2 -1</clus>
</clustering>
</event>
<event>
 4   0  0.3464723E-02  0.4250875E+03  0.7816531E-02  0.1035423E+00
       21   -1    0    0  503  502  0.00000000000E+00  0.00000000000E+00  0.13320534267E+04  0.13320534267E+04  0.00000000000E+00 0. -1.
       21   -1    0    0  501  503  0.00000000000E+00  0.00000000000E+00 -0.26647271481E+03  0.26647271481E+03  0.00000000000E+00 0.  1.
  1000006    1    1    2  501    0 -0.14790076105E+03  0.19059044927E+03 -0.27221334593E+02  0.42595816171E+03  0.35000000000E+03 0.  0.
 -1000006    1    1    2    0  502  0.14790076105E+03 -0.19059044927E+03  0.10928020465E+04  0.11725679798E+04  0.35000000000E+03 0.  0.
<scales pt_clust_1="13000.00000" pt_clust_2="13000.00000"></scales>
<clustering>
<clus scale="  425.087">  2  3  1 -1</clus>
<clus scale="  425.087">  1  3  2 -1</clus>
</clustering>
</event>
<event>
 4   0  0.3464723E-02  0.3823648E+03  0.7816531E-02  0.1050063E+00
       21   -1    0    0  501  502  0.00000000000E+00  0.00000000000E+00  0.67543134538E+03  0.67543134538E+03  0.00000000000E+00 0. -1.
       21   -1    0    0  502  503  0.00000000000E+00  0.00000000000E+00 -0.21858098566E+03  0.21858098566E+03  0.00000000000E+00 0. -1.
  1000006    1    1    2  501    0 -0.10317147422E+03 -0.11427389597E+03  0.27247322084E+03  0.46951521005E+03  0.35000000000E+03 0.  0.
 -1000006    1    1    2    0  503  0.10317147422E+03  0.11427389597E+03  0.18437713888E+03  0.42449712100E+03  0.35000000000E+03 0.  0.
<scales pt_clust_1="13000.00000" pt_clust_2="13000.00000"></scales>
<clustering>
<clus scale="  382.365">  1  3  2 -1</clus>
<clus scale="  382.365">  1  3  2 -1</clus>
</clustering>
</event>
<event>
 5   1  0.3464723E-02  0.5175606E+03  0.7816531E-02  0.1009294E+00
       21   -1    0    0  504  502  0.00000000000E+00  0.00000000000E+00  0.31498520615E+03  0.31498520615E+03  0.00000000000E+00 0. -1.
       21   -1    0    0  501  503  0.00000000000E+00  0.00000000000E+00 -0.11460245245E+04  0.11460245245E+04  0.00000000000E+00 0. -1.
  1000006    1    1    2  501    0 -0.19414758239E+03 -0.31480399857E+03 -0.65253093871E+03  0.82770252340E+03  0.35000000000E+03 0.  0.
 -1000006    1    1    2    0  502  0.16466729609E+03  0.37482949305E+03 -0.17501651952E+03  0.56634198976E+03  0.35000000000E+03 0.  0.
       21    1    1    2  504  503  0.29480286300E+02 -0.60025494473E+02 -0.34918601293E+01  0.66965217496E+02  0.00000000000E+00 0. -1.
<scales pt_clust_1="13000.00000" pt_clust_2="13000.00000" pt_clust_3="66.87412"></scales>
<clustering>
<clus scale="   66.874">  1  5  2 -1</clus>
<clus scale="  517.561">  1  4  2 -1</clus>
<clus scale="  517.561">  1  3  2 -1</clus>
</clustering>
</event>
<event>
 5   1  0.3464723E-02  0.3938608E+03  0.7816531E-02  0.1045926E+00
       21   -1    0    0  501  502  0.00000000000E+00  0.00000000000E+00  0.14503394245E+03  0.14503394245E+03  0.00000000000E+00 0.  1.
       21   -1    0    0  504  503  0.00000000000E+00  0.00000000000E+00 -0.22205922422E+04  0.22205922422E+04  0.00000000000E+00 0.  1.
  1000006    1    1    2  501    0  0.17197767935E+03  0.12256392744E+03 -0.37383989484E+03  0.55394449675E+03  0.35000000000E+03 0.  0.
 -1000006    1    1    2    0  503 -0.14309161100E+03 -0.97630742453E+02 -0.17238761393E+04  0.17675564813E+04  0.35000000000E+03 0.  0.
       21    1    1    2  504  502 -0.28886068351E+02 -0.24933184990E+02  0.22157734421E+02  0.44125206551E+02  0.00000000000E+00 0. -1.
<scales pt_clust_1="13000.00000" pt_clust_2="13000.00000" pt_clust_3="38.15847"></scales>
<clustering>
<clus scale="   38.158">  1  5  2 -1</clus>
<clus scale="  393.861">  1  3  2 -1</clus>
<clus scale="  393.861">  1  3  2 -1</clus>
</clustering>
</event>
<event>
 5   1  0.3464723E-02  0.3831864E+03  0.7816531E-02  0.1049762E+00
       21   -1    0    0  503  502  0.00000000000E+00  0.00000000000E+00  0.14997462373E+04  0.14997462373E+04  0.00000000000E+00 0.  1.
       21   -1    0    0  504  503  0.00000000000E+00  0.00000000000E+00 -0.16545452794E+03  0.16545452794E+03  0.00000000000E+00 0.  1.
  1000006    1    1    2  501    0  0.68131776640E+02 -0.12655278682E+03  0.24403098059E+03  0.45023179178E+03  0.35000000000E+03 0.  0.
 -1000006    1    1    2    0  502 -0.10356709654E+03  0.12274679967E+03  0.11095278330E+04  0.11744551641E+04  0.35000000000E+03 0.  0.
       21    1    1    2  504  501  0.35435319898E+02  0.38059871491E+01 -0.19267104295E+02  0.40513809280E+02  0.00000000000E+00 0. -1.
<scales pt_clust_1="13000.00000" pt_clust_2="13000.00000" pt_clust_3="35.63913"></scales>
<clustering>
<clus scale="   35.639">  2  5  1 -1</clus>
<clus scale="  383.186">  2  3  1 -1</clus>
<clus scale="  383.186">  1  3  2 -1</clus>
</clustering>
</event>
<event>
 6   2  0.3464723E-02  0.4306446E+03  0.7816531E-02  0.1033657E+00
       -2   -1    0    0    0  501  0.00000000000E+00  0.00000000000E+00  0.20245261910E+04  0.20245261910E+04  0.00000000000E+00 0. -1.
       21   -1    0    0  504  503  0.00000000000E+00  0.00000000000E+00 -0.14422383560E+03  0.14422383560E+03  0.00000000000E+00 0. -1.
  1000006    1    1    2  502    0  0.17477803986E+03 -0.58374089548E+02  0.70328864508E+03  0.80688897368E+03  0.35000000000E+03 0.  0.
 -1000006    1    1    2    0  503 -0.32638439934E+03  0.15034117811E+02  0.75078526700E+03  0.89046691009E+03  0.35000000000E+03 0.  0.
       21    1    1    2  504  501  0.37672253067E+02  0.34332343073E+02  0.30290428782E+02  0.59290964808E+02  0.00000000000E+00 0. -1.
       -2    1    1    2    0  502  0.11393410641E+03  0.90076286641E+01  0.39593801451E+03  0.41210317799E+03  0.00000000000E+00 0. -1.
<scales pt_clust_1="13000.00000" pt_clust_2="13000.00000" pt_clust_3="50.96968" pt_clust_4="116.81436"></scales>
<clustering>
<clus scale="   50.970">  2  5  1 -1</clus>
<clus scale="  116.814">  1  6  2 -1</clus>
<clus scale="  430.645">  2  4  1 -1</clus>
<clus scale="  430.645">  2  3  1 -1</clus>
</clustering>
</event>
<event>
 6   2  0.3464723E-02  0.5255504E+03  0.7816531E-02  0.1007317E+00
        3   -1    0    0  501    0  0.00000000000E+00  0.00000000000E+00  0.61560862648E+03  0.61560862648E+03  0.00000000000E+00 0.  1.
        2   -1    0    0  503    0  0.00000000000E+00  0.00000000000E+00 -0.24695776209E+04  0.24695776209E+04  0.00000000000E+00 0. -1.
  1000006    1    1    2  501    0  0.38689950319E+03 -0.99660591652E+02 -0.83279251345E+03  0.98775848746E+03  0.35000000000E+03 0.  0.
 -1000006    1    1    2    0  502 -0.34694264982E+03  0.18176007992E+03 -0.96855188018E+03  0.11018160797E+04  0.35000000000E+03 0.  0.
        2    1    1    2  502    0 -0.96364940496E+01 -0.47227139169E+02 -0.52187262875E+03  0.52409379440E+03  0.00000000000E+00 0. -1.
        3    1    1    2  503    0 -0.30320359319E+02 -0.34872349095E+02  0.46924802794E+03  0.47151788582E+03  0.00000000000E+00 0.  1.
<scales pt_clust_1="13000.00000" pt_clust_2="13000.00000" pt_clust_3="48.50822" pt_clust_4="46.21044"></scales>
<clustering>
<clus scale="   46.210">  1  6  2 -1</clus>
<clus scale="   48.508">  2  5  1 -1</clus>
<clus scale="  525.550">  1  3  2 -1</clus>
<clus scale="  525.550">  2  3  1 -1</clus>
</clustering>
</event>
<event>
 5   1  0.3464723E-02  0.4844938E+03  0.7816531E-02  0.1017907E+00
       21   -1    0    0  502  503  0.00000000000E+00  0.00000000000E+00  0.38134975058E+03  0.38134975058E+03  0.00000000000E+00 0.  1.
        2   -1    0    0  501    0  0.00000000000E+00  0.00000000000E+00 -0.95805953193E+03  0.95805953193E+03  0.00000000000E+00 0. -1.
  1000006    1    1    2  501    0 -0.32623536605E+03  0.21215902526E+03 -0.30266168439E+03  0.60460322631E+03  0.35000000000E+03 0.  0.
 -1000006    1    1    2    0  503  0.25934902653E+03 -0.14375793676E+03 -0.37736571699E+03  0.59399759789E+03  0.35000000000E+03 0.  0.
        2    1    1    2  502    0  0.66886339528E+02 -0.68401088499E+02  0.10331762002E+03  0.14080845831E+03  0.00000000000E+00 0. -1.
<scales pt_clust_1="13000.00000" pt_clust_2="13000.00000" pt_clust_3="95.66865"></scales>
<clustering>
<clus scale="   95.669">  1  5  2 -1</clus>
<clus scale="  773.016">  3  4 -1 -1</clus>
<clus scale="  484.494">  1  3  2 -1</clus>
</clustering>
</event>
<event>
 5   1  0.3464723E-02  0.3556505E+03  0.7816531E-02  0.1060319E+00
       21   -1    0    0  501  502  0.00000000000E+00  0.00000000000E+00  0.62108131270E+03  0.62108131270E+03  0.00000000000E+00 0. -1.
       21   -1    0    0  504  503  0.00000000000E+00  0.00000000000E+00 -0.36821763887E+03  0.36821763887E+03  0.00000000000E+00 0. -1.
  1000006    1    1    2  501    0 -0.22767046611E+02  0.45080015402E+02  0.28112508233E+03  0.45175420099E+03  0.35000000000E+03 0.  0.
 -1000006    1    1    2    0  503  0.72534859515E+02 -0.91655663416E+01 -0.16037291648E+03  0.39187343083E+03  0.35000000000E+03 0.  0.
       21    1    1    2  504  502 -0.49767812904E+02 -0.35914449060E+02  0.13211150799E+03  0.14567131974E+03  0.00000000000E+00 0.  1.
<scales pt_clust_1="13000.00000" pt_clust_2="13000.00000" pt_clust_3="61.37331"></scales>
<clustering>
<clus scale="   61.373">  1  5  2 -1</clus>
<clus scale="  355.651">  2  4  1 -1</clus>
<clus scale="  355.651">  1  3  2 -1</clus>
</clustering>
</event>
<event>
 4   0  0.3464723E-02  0.3524871E+03  0.7816531E-02  0.1061599E+00
       21   -1    0    0  503  502  0.00000000000E+00  0.00000000000E+00  0.16526843278E+03  0.16526843278E+03  0.00000000000E+00 0. -1.
       21   -1    0    0  501  503  0.00000000000E+00  0.00000000000E+00 -0.76360116071E+03  0.76360116071E+03  0.00000000000E+00 0. -1.
  1000006    1    1    2  501    0  0.33451416781E+02 -0.25062788540E+02 -0.35692798265E+03  0.50164202920E+03  0.35000000000E+03 0.  0.
 -1000006    1    1    2    0  502 -0.33451416781E+02  0.25062788540E+02 -0.24140474528E+03  0.42722756430E+03  0.35000000000E+03 0.  0.
<scales pt_clust_1="13000.00000" pt_clust_2="13000.00000"></scales>
<clustering>
<clus scale="  352.487">  2  3  1 -1</clus>
<clus scale="  352.487">  1  3  2 -1</clus>
</clustering>
</event>
<event>
 6   2  0.3464723E-02  0.3902399E+03  0.7816531E-02  0.1047213E+00
        1   -1    0    0  504    0  0.00000000000E+00  0.00000000000E+00  0.73838601649E+03  0.73838601649E+03  0.00000000000E+00 0.  1.
       21   -1    0    0  502  503  0.00000000000E+00  0.00000000000E+00 -0.81550525710E+03  0.81550525710E+03  0.00000000000E+00 0.  1.
  1000006    1    1    2  501    0  0.12584650402E+03  0.93835029610E+01 -0.95120921846E+02  0.38402263276E+03  0.35000000000E+03 0.  0.
 -1000006    1    1    2    0  503 -0.18680759371E+03  0.73344513971E+02 -0.48858699012E+03  0.63363533812E+03  0.35000000000E+03 0.  0.
       21    1    1    2  504  501  0.41826446608E+02 -0.16835942472E+02  0.28706741285E+02  0.53450702427E+02  0.00000000000E+00 0.  1.
        1    1    1    2  502    0  0.19134643084E+02 -0.65892074460E+02  0.47788193008E+03  0.48278260028E+03  0.00000000000E+00 0.  1.
<scales pt_clust_1="13000.00000" pt_clust_2="13000.00000" pt_clust_3="45.08770" pt_clust_4="91.12324"></scales>
<clustering>
<clus scale="   45.088">  1  5  2 -1</clus>
<clus scale="   91.123">  1  6  2 -1</clus>
<clus scale="  390.240">  1  3  2 -1</clus>
<clus scale="  390.240">  2  3  1 -1</clus>
</clustering>
</event>
<event>
 4   0  0.3464723E-02  0.6154951E+03  0.7816531E-02  0.9873770E-01
       21   -1    0    0  503  502  0.00000000000E+00  0.00000000000E+00  0.66482541742E+03  0.66482541742E+03  0.00000000000E+00 0.  1.
       21   -1    0    0  501  503  0.00000000000E+00  0.00000000000E+00 -0.58271181212E+03  0.58271181212E+03  0.00000000000E+00 0. -1.
  1000006    1    1    2  501    0  0.14738215328E+03 -0.48436842929E+03 -0.51704329104E+02  0.61766302467E+03  0.35000000000E+03 0.  0.
 -1000006    1    1    2    0  502 -0.14738215328E+03  0.48436842929E+03  0.13381793441E+03  0.62987420487E+03  0.35000000000E+03 0.  0.
<scales pt_clust_1="13000.00000" pt_clust_2="13000.00000"></scales>
<clustering>
<clus scale="  615.495">  2  3  1 -1</clus>
<clus scale="  615.495">  1  3  2 -1</clus>
</clustering>
</event>
<event>
 5   1  0.3464723E-02  0.3708557E+03  0.7816531E-02  0.1054366E+00
       21   -1    0    0  501  502  0.00000000000E+00  0.00000000000E+00  0.18954011304E+03  0.18954011304E+03  0.00000000000E+00 0.  1.
       21   -1    0    0  502  503  0.00000000000E+00  0.00000000000E+00 -0.12795029551E+04  0.12795029551E+04  0.00000000000E+00 0.  1.
  1000006    1    1    2  501    0 -0.15142591782E+03 -0.91309643832E+01 -0.15224397722E+03  0.41072060053E+03  0.35000000000E+03 0.  0.
 -1000006    1    1    2    0  504  0.55359881613E+02  0.48824077289E+02 -0.54362093517E+03  0.65074743808E+03  0.35000000000E+03 0.  0.
       21    1    1    2  504  503  0.96066036206E+02 -0.39693112906E+02 -0.39409792964E+03  0.40757502950E+03  0.00000000000E+00 0.  1.
<scales pt_clust_1="13000.00000" pt_clust_2="13000.00000" pt_clust_3="103.94338"></scales>
<clustering>
<clus scale="  103.943">  2  5  1 -1</clus>
<clus scale="  370.856">  1  3  2 -1</clus>
<clus scale="  370.856">  1  3  2 -1</clus>
</clustering>
</event>
<event>
 6   2  0.3464723E-02  0.3657235E+03  0.7816531E-02  0.1056340E+00
       21   -1    0    0  505  502  0.00000000000E+00  0.00000000000E+00  0.55234619656E+03  0.55234619656E+03  0.00000000000E+00 0. -1.
       21   -1    0    0  501  503  0.00000000000E+00  0.00000000000E+00 -0.56669957677E+03  0.56669957677E+03  0.00000000000E+00 0. -1.
  1000006    1    1    2  501    0 -0.16968425004E+01  0.41953462280E+02  0.67610163916E+02  0.35893468283E+03  0.35000000000E+03 0.  0.
 -1000006    1    1    2    0  504 -0.16422321549E+03 -0.10489706406E+03  0.12384489016E+03  0.41929728758E+03  0.35000000000E+03 0.  0.
       21    1    1    2  504  502  0.87752394654E+02  0.33620950312E+02  0.23427127975E+02  0.96848755245E+02  0.00000000000E+00 0. -1.
       21    1    1    2  505  503  0.78167663335E+02  0.29322651472E+02 -0.22923556226E+03  0.24396504767E+03  0.00000000000E+00 0. -1.
<scales pt_clust_1="13000.00000" pt_clust_2="13000.00000" pt_clust_3="103.25706" pt_clust_4="83.48653"></scales>
<clustering>
<clus scale="   83.487">  2  6  1 -1</clus>
<clus scale="  103.257">  1  5  2 -1</clus>
<clus scale="  365.724">  2  3  1 -1</clus>
<clus scale="  365.724">  1  3  2 -1</clus>
</clustering>
</event>
<event>
 6   2  0.3464723E-02  0.4167856E+03  0.7816531E-02  0.1038118E+00
       21   -1    0    0  504  503  0.00000000000E+00  0.00000000000E+00  0.23444277921E+03  0.23444277921E+03  0.00000000000E+00 0. -1.
        2   -1    0    0  501    0  0.00000000000E+00  0.00000000000E+00 -0.14020796511E+04  0.14020796511E+04  0.00000000000E+00 0. -1.
  1000006    1    1    2  501    0  0.11413397897E+03 -0.20781403612E+03 -0.29603268166E+03  0.51608970865E+03  0.35000000000E+03 0.  0.
 -1000006    1    1    2    0  503 -0.11292154021E+03  0.18543937444E+03 -0.22786064186E+03  0.47070108131E+03  0.35000000000E+03 0.  0.
       21    1    1    2  504  502 -0.32115379706E+02  0.18947720080E+02 -0.13547439711E+03  0.14051236950E+03  0.00000000000E+00 0.  1.
        2    1    1    2  502    0  0.30902940951E+02  0.34269415943E+01 -0.50826915125E+03  0.50921927084E+03  0.00000000000E+00 0. -1.
<scales pt_clust_1="13000.00000" pt_clust_2="13000.00000" pt_clust_3="33.56979" pt_clust_4="31.09237"></scales>
<clustering>
<clus scale="   31.092">  2  6  1 -1</clus>
<clus scale="   33.570">  2  5  1 -1</clus>
<clus scale="  416.786">  1  4  2 -1</clus>
<clus scale="  416.786">  1  3  2 -1</clus>
</clustering>
</event>
</LesHouchesEvents>
